
    -----------------------------------------------------------------------
          Psi4: An Open-Source Ab Initio Electronic Structure Package
                               Psi4 1.2a1.dev875 

                         Git: Rev {symm_JK} 0ea9481 dirty


    R. M. Parrish, L. A. Burns, D. G. A. Smith, A. C. Simmonett,
    A. E. DePrince III, E. G. Hohenstein, U. Bozkaya, A. Yu. Sokolov,
    R. Di Remigio, R. M. Richard, J. F. Gonthier, A. M. James,
    H. R. McAlexander, A. Kumar, M. Saitow, X. Wang, B. P. Pritchard,
    P. Verma, H. F. Schaefer III, K. Patkowski, R. A. King, E. F. Valeev,
    F. A. Evangelista, J. M. Turney, T. D. Crawford, and C. D. Sherrill,
    J. Chem. Theory Comput. 13(7) pp 3185--3197 (2017).
    (doi: 10.1021/acs.jctc.7b00174)

    -----------------------------------------------------------------------


    Psi4 started on: Friday, 02 March 2018 03:21PM

    Process ID:  20701
    PSIDATADIR: /theoryfs2/ds/schieber/Gits/mspsi4/objdir3/stage/usr/local/psi4/share/psi4
    Memory:     500.0 MiB
    Threads:    6
    
  ==> Input File <==

--------------------------------------------------------------------------
memory 60 Gb

molecule protein_63 {
0 1
 N   18.626  30.444   6.627
 C   17.853  29.516   5.837
 C   16.945  30.292   4.886
 O   15.843  30.678   5.237
 C   17.047  28.642   6.811
 C   16.316  27.513   6.146
 O   16.236  27.458   4.905
 O   15.762  26.696   6.882
 N    4.567  24.042   8.795
 C    4.886  22.777   8.145
 C    6.265  22.720   7.521
 O    6.723  23.689   6.900
 N   17.407  27.054  -1.437
 C   17.227  26.751  -0.026
 C   18.555  26.446   0.653
 O   19.003  25.309   0.692
 C   16.258  25.572   0.084
 C   15.759  25.336   1.493
 O   16.399  25.780   2.453
 O   14.731  24.675   1.645
 N   19.106  26.199   3.688
 C   18.957  25.372   4.876
 C   18.845  23.903   4.520
 O   18.660  23.054   5.417
 N   20.536  20.559   2.918
 C   21.779  19.912   2.496
 C   21.693  19.374   1.107
 O   22.642  19.502   0.361
 C   22.169  18.827   3.447
 C   22.272  19.337   4.844
 O   22.714  20.482   5.029
 O   21.836  18.647   5.778
 H   18.180  30.990   7.295
 H   18.510  28.835   5.249
 H   16.336  29.276   7.377
 H   17.778  28.186   7.516
 H   15.845  26.702   7.843
 H    4.436  24.871   8.195
 H    4.744  21.930   8.802
 H    4.143  22.632   7.335
 H   17.860  26.421  -2.023
 H   16.724  27.595   0.500
 H   16.724  24.663  -0.337
 H   15.363  25.845  -0.519
 H   16.737  25.171   3.109
 H   18.314  26.771   3.377
 H   18.015  25.631   5.391
 H   19.792  25.567   5.577
 H   19.976  20.073   3.597
 H   22.602  20.664   2.537
 H   23.175  18.459   3.144
 H   21.465  17.966   3.392
 H   21.492  17.752   5.634
 H   19.646  30.419   6.619
 H   17.295  30.415   3.850
 H    4.454  24.117   9.806
 H    6.887  21.864   7.822
 H   16.947  27.858  -1.864
 H   19.060  27.284   1.155
 H   20.034  26.347   3.290
 H   18.824  23.654   3.449
 H   20.197  21.395   2.443
 H   20.727  18.956   0.786
}

set {
basis cc-pvdz
scf_type df
guess sad
DF_SCF_TYPE DFJK
}

energy('HF')
--------------------------------------------------------------------------

  Memory set to  55.879 GiB by Python driver.

*** tstart() called on hex15
*** at Fri Mar  2 15:21:11 2018

   => Loading Basis Set <=

    Name: CC-PVDZ
    Role: ORBITAL
    Keyword: BASIS
    atoms 1, 9, 13, 21, 25                                   entry N          line   168 file /theoryfs2/ds/schieber/Gits/mspsi4/objdir3/stage/usr/local/psi4/share/psi4/basis/cc-pvdz.gbs 
    atoms 2-3, 5-6, 10-11, 14-15, 17-18, 22-23, 26-27, 29-30 entry C          line   138 file /theoryfs2/ds/schieber/Gits/mspsi4/objdir3/stage/usr/local/psi4/share/psi4/basis/cc-pvdz.gbs 
    atoms 4, 7-8, 12, 16, 19-20, 24, 28, 31-32               entry O          line   198 file /theoryfs2/ds/schieber/Gits/mspsi4/objdir3/stage/usr/local/psi4/share/psi4/basis/cc-pvdz.gbs 
    atoms 33-63                                              entry H          line    22 file /theoryfs2/ds/schieber/Gits/mspsi4/objdir3/stage/usr/local/psi4/share/psi4/basis/cc-pvdz.gbs 


         ---------------------------------------------------------
                                   SCF
            by Justin Turney, Rob Parrish, Andy Simmonett
                             and Daniel Smith
                              RHF Reference
                        6 Threads,  57220 MiB Core
         ---------------------------------------------------------

  ==> Geometry <==

    Molecular point group: c1
    Full point group: C1

    Geometry (in Angstrom), charge = 0, multiplicity = 1:

       Center              X                  Y                   Z               Mass       
    ------------   -----------------  -----------------  -----------------  -----------------
           N          1.657504219370     5.864960045694     2.581113844373    14.003074004780
           C          0.884504219370     4.936960045694     1.791113844373    12.000000000000
           C         -0.023495780630     5.712960045694     0.840113844373    12.000000000000
           O         -1.125495780630     6.098960045694     1.191113844373    15.994914619560
           C          0.078504219370     4.062960045694     2.765113844373    12.000000000000
           C         -0.652495780630     2.933960045694     2.100113844373    12.000000000000
           O         -0.732495780630     2.878960045694     0.859113844373    15.994914619560
           O         -1.206495780630     2.116960045694     2.836113844373    15.994914619560
           N        -12.401495780630    -0.537039954306     4.749113844373    14.003074004780
           C        -12.082495780630    -1.802039954306     4.099113844373    12.000000000000
           C        -10.703495780630    -1.859039954306     3.475113844373    12.000000000000
           O        -10.245495780630    -0.890039954306     2.854113844373    15.994914619560
           N          0.438504219370     2.474960045694    -5.482886155627    14.003074004780
           C          0.258504219370     2.171960045694    -4.071886155627    12.000000000000
           C          1.586504219370     1.866960045694    -3.392886155627    12.000000000000
           O          2.034504219370     0.729960045694    -3.353886155627    15.994914619560
           C         -0.710495780630     0.992960045694    -3.961886155627    12.000000000000
           C         -1.209495780630     0.756960045694    -2.552886155627    12.000000000000
           O         -0.569495780630     1.200960045694    -1.592886155627    15.994914619560
           O         -2.237495780630     0.095960045694    -2.400886155627    15.994914619560
           N          2.137504219370     1.619960045694    -0.357886155627    14.003074004780
           C          1.988504219370     0.792960045694     0.830113844373    12.000000000000
           C          1.876504219370    -0.676039954306     0.474113844373    12.000000000000
           O          1.691504219370    -1.525039954306     1.371113844373    15.994914619560
           N          3.567504219370    -4.020039954306    -1.127886155627    14.003074004780
           C          4.810504219370    -4.667039954306    -1.549886155627    12.000000000000
           C          4.724504219370    -5.205039954306    -2.938886155627    12.000000000000
           O          5.673504219370    -5.077039954306    -3.684886155627    15.994914619560
           C          5.200504219370    -5.752039954306    -0.598886155627    12.000000000000
           C          5.303504219370    -5.242039954306     0.798113844373    12.000000000000
           O          5.745504219370    -4.097039954306     0.983113844373    15.994914619560
           O          4.867504219370    -5.932039954306     1.732113844373    15.994914619560
           H          1.211504219370     6.410960045694     3.249113844373     1.007825032070
           H          1.541504219370     4.255960045694     1.203113844373     1.007825032070
           H         -0.632495780630     4.696960045694     3.331113844373     1.007825032070
           H          0.809504219370     3.606960045694     3.470113844373     1.007825032070
           H         -1.123495780630     2.122960045694     3.797113844373     1.007825032070
           H        -12.532495780630     0.291960045694     4.149113844373     1.007825032070
           H        -12.224495780630    -2.649039954306     4.756113844373     1.007825032070
           H        -12.825495780630    -1.947039954306     3.289113844373     1.007825032070
           H          0.891504219370     1.841960045694    -6.068886155627     1.007825032070
           H         -0.244495780630     3.015960045694    -3.545886155627     1.007825032070
           H         -0.244495780630     0.083960045694    -4.382886155627     1.007825032070
           H         -1.605495780630     1.265960045694    -4.564886155627     1.007825032070
           H         -0.231495780630     0.591960045694    -0.936886155627     1.007825032070
           H          1.345504219370     2.191960045694    -0.668886155627     1.007825032070
           H          1.046504219370     1.051960045694     1.345113844373     1.007825032070
           H          2.823504219370     0.987960045694     1.531113844373     1.007825032070
           H          3.007504219370    -4.506039954306    -0.448886155627     1.007825032070
           H          5.633504219370    -3.915039954306    -1.508886155627     1.007825032070
           H          6.206504219370    -6.120039954306    -0.901886155627     1.007825032070
           H          4.496504219370    -6.613039954306    -0.653886155627     1.007825032070
           H          4.523504219370    -6.827039954306     1.588113844373     1.007825032070
           H          2.677504219370     5.839960045694     2.573113844373     1.007825032070
           H          0.326504219370     5.835960045694    -0.195886155627     1.007825032070
           H        -12.514495780630    -0.462039954306     5.760113844373     1.007825032070
           H        -10.081495780630    -2.715039954306     3.776113844373     1.007825032070
           H         -0.021495780630     3.278960045694    -5.909886155627     1.007825032070
           H          2.091504219370     2.704960045694    -2.890886155627     1.007825032070
           H          3.065504219370     1.767960045694    -0.755886155627     1.007825032070
           H          1.855504219370    -0.925039954306    -0.596886155627     1.007825032070
           H          3.228504219370    -3.184039954306    -1.602886155627     1.007825032070
           H          3.758504219370    -5.623039954306    -3.259886155627     1.007825032070

  Running in c1 symmetry.

  Rotational constants: A =      0.00221  B =      0.00111  C =      0.00093 [cm^-1]
  Rotational constants: A =     66.16714  B =     33.30218  C =     27.81539 [MHz]
  Nuclear repulsion = 2982.748493552713626

  Charge       = 0
  Multiplicity = 1
  Electrons    = 250
  Nalpha       = 125
  Nbeta        = 125

  ==> Algorithm <==

  SCF Algorithm Type is DF.
  DIIS enabled.
  MOM disabled.
  Fractional occupation disabled.
  Guess Type is SAD.
  Energy threshold   = 1.00e-06
  Density threshold  = 1.00e-06
  Integral threshold = 0.00e+00

  ==> Primary Basis <==

  Basis Set: CC-PVDZ
    Blend: CC-PVDZ
    Number of shells: 285
    Number of basis function: 603
    Number of Cartesian functions: 635
    Spherical Harmonics?: true
    Max angular momentum: 2

   => Loading Basis Set <=

    Name: (CC-PVDZ AUX)
    Role: JKFIT
    Keyword: DF_BASIS_SCF
    atoms 1, 9, 13, 21, 25                                   entry N          line   171 file /theoryfs2/ds/schieber/Gits/mspsi4/objdir3/stage/usr/local/psi4/share/psi4/basis/cc-pvdz-jkfit.gbs 
    atoms 2-3, 5-6, 10-11, 14-15, 17-18, 22-23, 26-27, 29-30 entry C          line   121 file /theoryfs2/ds/schieber/Gits/mspsi4/objdir3/stage/usr/local/psi4/share/psi4/basis/cc-pvdz-jkfit.gbs 
    atoms 4, 7-8, 12, 16, 19-20, 24, 28, 31-32               entry O          line   221 file /theoryfs2/ds/schieber/Gits/mspsi4/objdir3/stage/usr/local/psi4/share/psi4/basis/cc-pvdz-jkfit.gbs 
    atoms 33-63                                              entry H          line    51 file /theoryfs2/ds/schieber/Gits/mspsi4/objdir3/stage/usr/local/psi4/share/psi4/basis/cc-pvdz-jkfit.gbs 

  ==> Pre-Iterations <==

   -------------------------------------------------------
    Irrep   Nso     Nmo     Nalpha   Nbeta   Ndocc  Nsocc
   -------------------------------------------------------
     A        603     603       0       0       0       0
   -------------------------------------------------------
    Total     603     603     125     125     125       0
   -------------------------------------------------------

  ==> Integral Setup <==

  ==> DFJK: Density-Fitted J/K Matrices <==

    J tasked:                  Yes
    K tasked:                  Yes
    wK tasked:                  No
    OpenMP threads:              6
    Integrals threads:           6
    Memory (MB):             42915
    Algorithm:                Core
    Integral Cache:           NONE
    Schwarz Cutoff:          1E-12
    Fitting Condition:       1E-12

   => Auxiliary Basis Set <=

  Basis Set: (CC-PVDZ AUX)
    Blend: CC-PVDZ-JKFIT
    Number of shells: 1047
    Number of basis function: 2953
    Number of Cartesian functions: 3367
    Spherical Harmonics?: true
    Max angular momentum: 3

  Minimum eigenvalue in the overlap matrix is 1.9605949742E-03.
  Using Symmetric Orthogonalization.

  SCF Guess: Superposition of Atomic Densities via on-the-fly atomic UHF.

  ==> Iterations <==

                           Total Energy        Delta E     RMS |[F,P]|

   @DF-RHF iter   0: -1731.47816197560633   -1.73148e+03   4.26777e-02 
   @DF-RHF iter   1: -1718.38031406866821    1.30978e+01   5.76891e-03 
   @DF-RHF iter   2: -1719.14171596184246   -7.61402e-01   4.23661e-03 DIIS
   @DF-RHF iter   3: -1719.56284370796607   -4.21128e-01   7.93383e-04 DIIS
   @DF-RHF iter   4: -1719.60253583769804   -3.96921e-02   3.12538e-04 DIIS
   @DF-RHF iter   5: -1719.60906128102124   -6.52544e-03   1.40528e-04 DIIS
   @DF-RHF iter   6: -1719.61075616137555   -1.69488e-03   6.00984e-05 DIIS
   @DF-RHF iter   7: -1719.61110540166169   -3.49240e-04   2.66160e-05 DIIS
   @DF-RHF iter   8: -1719.61117232156357   -6.69199e-05   1.09078e-05 DIIS
   @DF-RHF iter   9: -1719.61118939198263   -1.70704e-05   4.92207e-06 DIIS
   @DF-RHF iter  10: -1719.61119372531448   -4.33333e-06   2.49192e-06 DIIS
   @DF-RHF iter  11: -1719.61119491925638   -1.19394e-06   1.04284e-06 DIIS
   @DF-RHF iter  12: -1719.61119509946593   -1.80210e-07   4.61214e-07 DIIS

  ==> Post-Iterations <==

    Orbital Energies (a.u.)
    -----------------------

    Doubly Occupied:                                                      

       1A    -20.641298     2A    -20.632264     3A    -20.600771  
       4A    -20.567684     5A    -20.558843     6A    -20.556991  
       7A    -20.556320     8A    -20.553792     9A    -20.538072  
      10A    -20.517261    11A    -20.511897    12A    -15.554528  
      13A    -15.548024    14A    -15.547670    15A    -15.540535  
      16A    -15.538734    17A    -11.397594    18A    -11.383647  
      19A    -11.365876    20A    -11.344634    21A    -11.337193  
      22A    -11.334414    23A    -11.330208    24A    -11.327085  
      25A    -11.292631    26A    -11.286131    27A    -11.280106  
      28A    -11.272762    29A    -11.272645    30A    -11.265401  
      31A    -11.263182    32A    -11.236607    33A     -1.524103  
      34A     -1.508745    35A     -1.494858    36A     -1.394384  
      37A     -1.389397    38A     -1.388151    39A     -1.366861  
      40A     -1.364256    41A     -1.352648    42A     -1.335193  
      43A     -1.327438    44A     -1.206827    45A     -1.194946  
      46A     -1.187440    47A     -1.178863    48A     -1.161337  
      49A     -1.051142    50A     -1.050572    51A     -1.037747  
      52A     -0.961169    53A     -0.958724    54A     -0.944354  
      55A     -0.935329    56A     -0.931352    57A     -0.900849  
      58A     -0.885078    59A     -0.869005    60A     -0.803625  
      61A     -0.796468    62A     -0.793149    63A     -0.789062  
      64A     -0.788355    65A     -0.740708    66A     -0.728060  
      67A     -0.724308    68A     -0.711863    69A     -0.705176  
      70A     -0.698274    71A     -0.691162    72A     -0.687427  
      73A     -0.686031    74A     -0.680385    75A     -0.677558  
      76A     -0.672755    77A     -0.659383    78A     -0.658491  
      79A     -0.654483    80A     -0.651059    81A     -0.650095  
      82A     -0.645998    83A     -0.641239    84A     -0.635345  
      85A     -0.627857    86A     -0.624041    87A     -0.622890  
      88A     -0.621676    89A     -0.618748    90A     -0.615050  
      91A     -0.603614    92A     -0.601260    93A     -0.582652  
      94A     -0.570388    95A     -0.567112    96A     -0.560393  
      97A     -0.554136    98A     -0.551175    99A     -0.542615  
     100A     -0.542328   101A     -0.526675   102A     -0.525132  
     103A     -0.523254   104A     -0.513337   105A     -0.506410  
     106A     -0.497155   107A     -0.493957   108A     -0.480963  
     109A     -0.479087   110A     -0.463766   111A     -0.452606  
     112A     -0.449497   113A     -0.447061   114A     -0.439032  
     115A     -0.435804   116A     -0.435072   117A     -0.432494  
     118A     -0.430865   119A     -0.425651   120A     -0.424599  
     121A     -0.377323   122A     -0.373208   123A     -0.368289  
     124A     -0.367911   125A     -0.360455  

    Virtual:                                                              

     126A      0.118170   127A      0.130126   128A      0.135815  
     129A      0.137417   130A      0.138981   131A      0.141468  
     132A      0.142115   133A      0.153606   134A      0.170529  
     135A      0.174515   136A      0.180524   137A      0.181939  
     138A      0.187411   139A      0.189338   140A      0.194898  
     141A      0.199013   142A      0.208488   143A      0.209685  
     144A      0.212294   145A      0.215189   146A      0.223668  
     147A      0.224964   148A      0.231467   149A      0.234036  
     150A      0.240358   151A      0.246090   152A      0.247289  
     153A      0.247841   154A      0.258341   155A      0.263603  
     156A      0.274910   157A      0.276588   158A      0.278400  
     159A      0.286126   160A      0.292828   161A      0.298864  
     162A      0.309774   163A      0.333649   164A      0.343015  
     165A      0.351019   166A      0.355694   167A      0.367369  
     168A      0.381305   169A      0.390502   170A      0.401597  
     171A      0.417654   172A      0.422130   173A      0.427333  
     174A      0.432693   175A      0.434559   176A      0.439812  
     177A      0.440642   178A      0.443678   179A      0.452998  
     180A      0.458764   181A      0.459336   182A      0.460373  
     183A      0.472276   184A      0.484983   185A      0.490207  
     186A      0.502498   187A      0.512363   188A      0.519453  
     189A      0.546363   190A      0.567269   191A      0.598290  
     192A      0.624679   193A      0.628244   194A      0.630354  
     195A      0.635829   196A      0.643588   197A      0.655243  
     198A      0.674499   199A      0.682862   200A      0.690379  
     201A      0.692871   202A      0.693643   203A      0.698008  
     204A      0.702560   205A      0.706352   206A      0.707217  
     207A      0.708444   208A      0.714385   209A      0.715271  
     210A      0.722514   211A      0.724181   212A      0.735596  
     213A      0.739284   214A      0.743128   215A      0.747814  
     216A      0.749705   217A      0.756174   218A      0.762221  
     219A      0.767333   220A      0.768218   221A      0.773519  
     222A      0.778026   223A      0.782009   224A      0.791063  
     225A      0.795598   226A      0.797514   227A      0.801700  
     228A      0.802791   229A      0.807200   230A      0.814791  
     231A      0.818741   232A      0.821257   233A      0.826848  
     234A      0.840888   235A      0.841463   236A      0.850476  
     237A      0.852766   238A      0.854990   239A      0.855181  
     240A      0.858832   241A      0.863249   242A      0.864693  
     243A      0.868782   244A      0.870855   245A      0.877391  
     246A      0.878279   247A      0.879645   248A      0.882884  
     249A      0.885205   250A      0.886932   251A      0.890462  
     252A      0.893478   253A      0.895900   254A      0.900284  
     255A      0.906661   256A      0.910547   257A      0.911483  
     258A      0.916324   259A      0.923476   260A      0.931693  
     261A      0.936432   262A      0.937052   263A      0.946123  
     264A      0.955243   265A      0.962318   266A      0.965642  
     267A      0.975552   268A      0.978283   269A      0.981015  
     270A      0.998220   271A      1.007365   272A      1.008772  
     273A      1.018792   274A      1.019366   275A      1.026138  
     276A      1.026180   277A      1.034080   278A      1.038665  
     279A      1.057397   280A      1.059779   281A      1.063260  
     282A      1.077932   283A      1.080482   284A      1.083470  
     285A      1.093112   286A      1.094692   287A      1.101823  
     288A      1.103882   289A      1.106797   290A      1.116845  
     291A      1.120160   292A      1.135559   293A      1.139211  
     294A      1.139913   295A      1.142289   296A      1.161498  
     297A      1.165446   298A      1.182018   299A      1.185130  
     300A      1.208066   301A      1.213616   302A      1.225373  
     303A      1.245489   304A      1.257100   305A      1.284490  
     306A      1.288810   307A      1.289837   308A      1.294316  
     309A      1.296739   310A      1.298733   311A      1.304094  
     312A      1.316215   313A      1.322619   314A      1.327273  
     315A      1.327529   316A      1.328541   317A      1.343179  
     318A      1.346047   319A      1.356867   320A      1.360311  
     321A      1.362788   322A      1.364444   323A      1.366068  
     324A      1.373337   325A      1.375359   326A      1.377985  
     327A      1.387441   328A      1.389649   329A      1.390548  
     330A      1.395997   331A      1.398907   332A      1.400185  
     333A      1.404513   334A      1.407797   335A      1.412000  
     336A      1.423560   337A      1.433698   338A      1.438644  
     339A      1.440599   340A      1.447721   341A      1.454191  
     342A      1.463759   343A      1.471820   344A      1.473145  
     345A      1.477550   346A      1.488249   347A      1.488846  
     348A      1.502068   349A      1.510164   350A      1.516994  
     351A      1.528969   352A      1.536858   353A      1.547460  
     354A      1.557229   355A      1.564175   356A      1.581922  
     357A      1.590851   358A      1.601069   359A      1.608659  
     360A      1.609945   361A      1.612576   362A      1.617051  
     363A      1.620725   364A      1.638894   365A      1.646927  
     366A      1.654038   367A      1.659886   368A      1.664329  
     369A      1.672445   370A      1.680200   371A      1.684028  
     372A      1.697571   373A      1.700333   374A      1.701322  
     375A      1.706352   376A      1.719148   377A      1.725881  
     378A      1.736454   379A      1.741307   380A      1.745184  
     381A      1.779521   382A      1.787371   383A      1.792216  
     384A      1.804969   385A      1.814787   386A      1.822641  
     387A      1.823425   388A      1.826906   389A      1.832206  
     390A      1.843734   391A      1.844759   392A      1.854940  
     393A      1.861237   394A      1.868060   395A      1.871621  
     396A      1.876871   397A      1.883342   398A      1.884142  
     399A      1.892029   400A      1.894638   401A      1.905723  
     402A      1.912150   403A      1.918116   404A      1.922884  
     405A      1.924879   406A      1.929247   407A      1.935855  
     408A      1.936799   409A      1.938389   410A      1.948772  
     411A      1.949996   412A      1.955765   413A      1.958582  
     414A      1.962837   415A      1.964658   416A      1.965298  
     417A      1.972724   418A      1.973380   419A      1.981357  
     420A      1.982271   421A      1.985304   422A      1.993356  
     423A      2.001908   424A      2.010138   425A      2.016519  
     426A      2.016549   427A      2.019193   428A      2.031650  
     429A      2.037798   430A      2.042015   431A      2.047289  
     432A      2.052518   433A      2.054574   434A      2.064537  
     435A      2.073720   436A      2.081150   437A      2.082692  
     438A      2.091643   439A      2.096474   440A      2.098593  
     441A      2.107746   442A      2.111056   443A      2.116752  
     444A      2.117253   445A      2.128594   446A      2.131337  
     447A      2.139900   448A      2.144307   449A      2.145783  
     450A      2.156659   451A      2.174519   452A      2.184799  
     453A      2.186660   454A      2.187097   455A      2.189844  
     456A      2.204838   457A      2.207073   458A      2.212662  
     459A      2.227848   460A      2.233938   461A      2.236485  
     462A      2.250145   463A      2.257525   464A      2.264129  
     465A      2.276930   466A      2.277493   467A      2.307623  
     468A      2.316480   469A      2.322568   470A      2.346135  
     471A      2.347956   472A      2.361305   473A      2.362203  
     474A      2.365588   475A      2.387715   476A      2.393972  
     477A      2.427458   478A      2.434501   479A      2.446184  
     480A      2.449709   481A      2.449940   482A      2.452032  
     483A      2.476718   484A      2.484327   485A      2.488594  
     486A      2.497894   487A      2.500478   488A      2.503718  
     489A      2.507050   490A      2.525544   491A      2.531141  
     492A      2.545157   493A      2.548388   494A      2.558079  
     495A      2.571167   496A      2.592752   497A      2.609663  
     498A      2.611573   499A      2.612223   500A      2.615848  
     501A      2.625953   502A      2.638194   503A      2.643421  
     504A      2.650130   505A      2.654917   506A      2.661547  
     507A      2.673229   508A      2.695638   509A      2.700857  
     510A      2.710396   511A      2.711320   512A      2.726183  
     513A      2.727719   514A      2.732465   515A      2.745180  
     516A      2.748531   517A      2.776065   518A      2.777192  
     519A      2.789773   520A      2.793431   521A      2.797335  
     522A      2.815704   523A      2.822283   524A      2.837142  
     525A      2.854602   526A      2.862775   527A      2.870704  
     528A      2.885027   529A      2.885216   530A      2.886783  
     531A      2.891589   532A      2.897735   533A      2.904577  
     534A      2.906314   535A      2.913989   536A      2.971877  
     537A      2.983271   538A      3.006823   539A      3.023218  
     540A      3.043868   541A      3.059389   542A      3.062942  
     543A      3.069740   544A      3.072593   545A      3.076692  
     546A      3.077263   547A      3.088110   548A      3.094267  
     549A      3.104823   550A      3.119105   551A      3.120038  
     552A      3.148527   553A      3.154372   554A      3.155007  
     555A      3.162475   556A      3.191387   557A      3.232158  
     558A      3.265820   559A      3.296439   560A      3.307699  
     561A      3.309721   562A      3.316902   563A      3.369764  
     564A      3.399448   565A      3.402838   566A      3.410963  
     567A      3.419587   568A      3.425808   569A      3.431259  
     570A      3.433521   571A      3.457646   572A      3.466298  
     573A      3.472486   574A      3.476033   575A      3.483165  
     576A      3.499561   577A      3.507797   578A      3.515855  
     579A      3.548347   580A      3.552358   581A      3.568681  
     582A      3.659560   583A      3.678200   584A      3.719723  
     585A      3.730413   586A      3.737874   587A      3.746371  
     588A      3.783608   589A      3.811789   590A      3.819946  
     591A      3.826807   592A      3.831914   593A      3.848955  
     594A      3.852251   595A      3.860128   596A      3.861104  
     597A      3.863826   598A      3.886377   599A      3.894170  
     600A      3.967117   601A      4.168252   602A      4.237142  
     603A      4.246137  

    Final Occupation by Irrep:
              A 
    DOCC [   125 ]

  Energy converged.

  @DF-RHF Final Energy: -1719.61119509946593

   => Energetics <=

    Nuclear Repulsion Energy =           2982.7484935527136258
    One-Electron Energy =               -8294.5965169845185301
    Two-Electron Energy =                3592.2368283323389733
    Total Energy =                      -1719.6111950994659310



Properties will be evaluated at   0.000000,   0.000000,   0.000000 Bohr

Properties computed using the SCF density matrix

  Nuclear Dipole Moment: (a.u.)
     X:   -12.8500      Y:     5.9243      Z:     4.6194

  Electronic Dipole Moment: (a.u.)
     X:    12.8828      Y:    -6.0057      Z:    -2.6476

  Dipole Moment: (a.u.)
     X:     0.0327      Y:    -0.0814      Z:     1.9718     Total:     1.9737

  Dipole Moment: (Debye)
     X:     0.0832      Y:    -0.2069      Z:     5.0118     Total:     5.0168


*** tstop() called on hex15 at Fri Mar  2 15:23:57 2018
Module time:
	user time   =     418.95 seconds =       6.98 minutes
	system time =       4.14 seconds =       0.07 minutes
	total time  =        166 seconds =       2.77 minutes
Total time:
	user time   =     418.95 seconds =       6.98 minutes
	system time =       4.14 seconds =       0.07 minutes
	total time  =        166 seconds =       2.77 minutes

*** Psi4 exiting successfully. Buy a developer a beer!
