
    -----------------------------------------------------------------------
          Psi4: An Open-Source Ab Initio Electronic Structure Package
                               Psi4 1.2a1.dev875 

                         Git: Rev {symm_JK} 0ea9481 dirty


    R. M. Parrish, L. A. Burns, D. G. A. Smith, A. C. Simmonett,
    A. E. DePrince III, E. G. Hohenstein, U. Bozkaya, A. Yu. Sokolov,
    R. Di Remigio, R. M. Richard, J. F. Gonthier, A. M. James,
    H. R. McAlexander, A. Kumar, M. Saitow, X. Wang, B. P. Pritchard,
    P. Verma, H. F. Schaefer III, K. Patkowski, R. A. King, E. F. Valeev,
    F. A. Evangelista, J. M. Turney, T. D. Crawford, and C. D. Sherrill,
    J. Chem. Theory Comput. 13(7) pp 3185--3197 (2017).
    (doi: 10.1021/acs.jctc.7b00174)

    -----------------------------------------------------------------------


    Psi4 started on: Thursday, 01 March 2018 05:06PM

    Process ID:  28090
    PSIDATADIR: /theoryfs2/ds/schieber/Gits/mspsi4/objdir3/stage/usr/local/psi4/share/psi4
    Memory:     500.0 MiB
    Threads:    6
    
  ==> Input File <==

--------------------------------------------------------------------------
memory 60 Gb

molecule protein_15 {
0 1
 N   17.407  27.054  -1.437
 C   17.227  26.751  -0.026
 C   18.555  26.446   0.653
 O   19.003  25.309   0.692
 C   16.258  25.572   0.084
 C   15.759  25.336   1.493
 O   16.399  25.780   2.453
 O   14.731  24.675   1.645
 H   17.860  26.421  -2.023
 H   16.724  27.595   0.500
 H   16.724  24.663  -0.337
 H   15.363  25.845  -0.519
 H   16.737  25.171   3.109
 H   16.947  27.858  -1.864
 H   19.060  27.284   1.155
}

set {
basis cc-pvtz
scf_type df
guess sad
DF_SCF_TYPE DFJK
}

energy('HF')
--------------------------------------------------------------------------

  Memory set to  55.879 GiB by Python driver.

*** tstart() called on hex15
*** at Thu Mar  1 17:06:34 2018

   => Loading Basis Set <=

    Name: CC-PVTZ
    Role: ORBITAL
    Keyword: BASIS
    atoms 1        entry N          line   224 file /theoryfs2/ds/schieber/Gits/mspsi4/objdir3/stage/usr/local/psi4/share/psi4/basis/cc-pvtz.gbs 
    atoms 2-3, 5-6 entry C          line   186 file /theoryfs2/ds/schieber/Gits/mspsi4/objdir3/stage/usr/local/psi4/share/psi4/basis/cc-pvtz.gbs 
    atoms 4, 7-8   entry O          line   262 file /theoryfs2/ds/schieber/Gits/mspsi4/objdir3/stage/usr/local/psi4/share/psi4/basis/cc-pvtz.gbs 
    atoms 9-15     entry H          line    23 file /theoryfs2/ds/schieber/Gits/mspsi4/objdir3/stage/usr/local/psi4/share/psi4/basis/cc-pvtz.gbs 


         ---------------------------------------------------------
                                   SCF
            by Justin Turney, Rob Parrish, Andy Simmonett
                             and Daniel Smith
                              RHF Reference
                        6 Threads,  57220 MiB Core
         ---------------------------------------------------------

  ==> Geometry <==

    Molecular point group: c1
    Full point group: C1

    Geometry (in Angstrom), charge = 0, multiplicity = 1:

       Center              X                  Y                   Z               Mass       
    ------------   -----------------  -----------------  -----------------  -----------------
           N          0.493823883501     1.198273883779    -2.145822197285    14.003074004780
           C          0.313823883501     0.895273883779    -0.734822197285    12.000000000000
           C          1.641823883501     0.590273883779    -0.055822197285    12.000000000000
           O          2.089823883501    -0.546726116221    -0.016822197285    15.994914619560
           C         -0.655176116499    -0.283726116221    -0.624822197285    12.000000000000
           C         -1.154176116499    -0.519726116221     0.784177802715    12.000000000000
           O         -0.514176116499    -0.075726116221     1.744177802715    15.994914619560
           O         -2.182176116499    -1.180726116221     0.936177802715    15.994914619560
           H          0.946823883501     0.565273883779    -2.731822197285     1.007825032070
           H         -0.189176116499     1.739273883779    -0.208822197285     1.007825032070
           H         -0.189176116499    -1.192726116221    -1.045822197285     1.007825032070
           H         -1.550176116499    -0.010726116221    -1.227822197285     1.007825032070
           H         -0.176176116499    -0.684726116221     2.400177802715     1.007825032070
           H          0.033823883501     2.002273883779    -2.572822197285     1.007825032070
           H          2.146823883501     1.428273883779     0.446177802715     1.007825032070

  Running in c1 symmetry.

  Rotational constants: A =      0.10816  B =      0.04966  C =      0.03938 [cm^-1]
  Rotational constants: A =   3242.68280  B =   1488.90059  C =   1180.64051 [MHz]
  Nuclear repulsion =  383.662852131440786

  Charge       = 0
  Multiplicity = 1
  Electrons    = 62
  Nalpha       = 31
  Nbeta        = 31

  ==> Algorithm <==

  SCF Algorithm Type is DF.
  DIIS enabled.
  MOM disabled.
  Fractional occupation disabled.
  Guess Type is SAD.
  Energy threshold   = 1.00e-06
  Density threshold  = 1.00e-06
  Integral threshold = 0.00e+00

  ==> Primary Basis <==

  Basis Set: CC-PVTZ
    Blend: CC-PVTZ
    Number of shells: 122
    Number of basis function: 338
    Number of Cartesian functions: 385
    Spherical Harmonics?: true
    Max angular momentum: 3

   => Loading Basis Set <=

    Name: (CC-PVTZ AUX)
    Role: JKFIT
    Keyword: DF_BASIS_SCF
    atoms 1        entry N          line   177 file /theoryfs2/ds/schieber/Gits/mspsi4/objdir3/stage/usr/local/psi4/share/psi4/basis/cc-pvtz-jkfit.gbs 
    atoms 2-3, 5-6 entry C          line   125 file /theoryfs2/ds/schieber/Gits/mspsi4/objdir3/stage/usr/local/psi4/share/psi4/basis/cc-pvtz-jkfit.gbs 
    atoms 4, 7-8   entry O          line   229 file /theoryfs2/ds/schieber/Gits/mspsi4/objdir3/stage/usr/local/psi4/share/psi4/basis/cc-pvtz-jkfit.gbs 
    atoms 9-15     entry H          line    51 file /theoryfs2/ds/schieber/Gits/mspsi4/objdir3/stage/usr/local/psi4/share/psi4/basis/cc-pvtz-jkfit.gbs 

  ==> Pre-Iterations <==

   -------------------------------------------------------
    Irrep   Nso     Nmo     Nalpha   Nbeta   Ndocc  Nsocc
   -------------------------------------------------------
     A        338     338       0       0       0       0
   -------------------------------------------------------
    Total     338     338      31      31      31       0
   -------------------------------------------------------

  ==> Integral Setup <==

  ==> DFJK: Density-Fitted J/K Matrices <==

    J tasked:                  Yes
    K tasked:                  Yes
    wK tasked:                  No
    OpenMP threads:              6
    Integrals threads:           6
    Memory (MB):             42915
    Algorithm:                Core
    Integral Cache:           NONE
    Schwarz Cutoff:          1E-12
    Fitting Condition:       1E-12

   => Auxiliary Basis Set <=

  Basis Set: (CC-PVTZ AUX)
    Blend: CC-PVTZ-JKFIT
    Number of shells: 270
    Number of basis function: 842
    Number of Cartesian functions: 1013
    Spherical Harmonics?: true
    Max angular momentum: 4

  Minimum eigenvalue in the overlap matrix is 3.2283917052E-04.
  Using Symmetric Orthogonalization.

  SCF Guess: Superposition of Atomic Densities via on-the-fly atomic UHF.

  ==> Iterations <==

                           Total Energy        Delta E     RMS |[F,P]|

   @DF-RHF iter   0:  -437.74431631201332   -4.37744e+02   3.86143e-02 
   @DF-RHF iter   1:  -434.43562345922953    3.30869e+00   5.02584e-03 
   @DF-RHF iter   2:  -434.61778375244643   -1.82160e-01   3.39013e-03 DIIS
   @DF-RHF iter   3:  -434.69824508840372   -8.04613e-02   7.33706e-04 DIIS
   @DF-RHF iter   4:  -434.70641649157358   -8.17140e-03   3.09085e-04 DIIS
   @DF-RHF iter   5:  -434.70796113398313   -1.54464e-03   1.09670e-04 DIIS
   @DF-RHF iter   6:  -434.70837362140583   -4.12487e-04   5.12495e-05 DIIS
   @DF-RHF iter   7:  -434.70848449823876   -1.10877e-04   2.03170e-05 DIIS
   @DF-RHF iter   8:  -434.70850396177093   -1.94635e-05   9.50454e-06 DIIS
   @DF-RHF iter   9:  -434.70850850496180   -4.54319e-06   4.46075e-06 DIIS
   @DF-RHF iter  10:  -434.70850945638443   -9.51423e-07   2.35509e-06 DIIS
   @DF-RHF iter  11:  -434.70850964331436   -1.86930e-07   7.79217e-07 DIIS

  ==> Post-Iterations <==

    Orbital Energies (a.u.)
    -----------------------

    Doubly Occupied:                                                      

       1A    -20.616730     2A    -20.569262     3A    -20.524121  
       4A    -15.551550     5A    -11.375025     6A    -11.344158  
       7A    -11.292849     8A    -11.243426     9A     -1.511024  
      10A     -1.398006    11A     -1.342082    12A     -1.203589  
      13A     -1.047760    14A     -0.940447    15A     -0.883281  
      16A     -0.796731    17A     -0.733339    18A     -0.705739  
      19A     -0.699174    20A     -0.666304    21A     -0.659436  
      22A     -0.632704    23A     -0.625603    24A     -0.565348  
      25A     -0.534193    26A     -0.524531    27A     -0.511628  
      28A     -0.464280    29A     -0.451953    30A     -0.441496  
      31A     -0.380074  

    Virtual:                                                              

      32A      0.111622    33A      0.122091    34A      0.142812  
      35A      0.157198    36A      0.172790    37A      0.177857  
      38A      0.192090    39A      0.221666    40A      0.239588  
      41A      0.293909    42A      0.326489    43A      0.346358  
      44A      0.364684    45A      0.378617    46A      0.400637  
      47A      0.430586    48A      0.439053    49A      0.458757  
      50A      0.466638    51A      0.478103    52A      0.511675  
      53A      0.523631    54A      0.535401    55A      0.566705  
      56A      0.574494    57A      0.590517    58A      0.595665  
      59A      0.601613    60A      0.620338    61A      0.624338  
      62A      0.639636    63A      0.652700    64A      0.658337  
      65A      0.683703    66A      0.686806    67A      0.702733  
      68A      0.704207    69A      0.734639    70A      0.749435  
      71A      0.757790    72A      0.776160    73A      0.795281  
      74A      0.804404    75A      0.833255    76A      0.842377  
      77A      0.869892    78A      0.888417    79A      0.913380  
      80A      0.915106    81A      0.927355    82A      0.944524  
      83A      0.959165    84A      0.972537    85A      1.020691  
      86A      1.029546    87A      1.046919    88A      1.090508  
      89A      1.106266    90A      1.128493    91A      1.168655  
      92A      1.188394    93A      1.194345    94A      1.206779  
      95A      1.222066    96A      1.245837    97A      1.255835  
      98A      1.269569    99A      1.293221   100A      1.311372  
     101A      1.321358   102A      1.335358   103A      1.353125  
     104A      1.384178   105A      1.390445   106A      1.421732  
     107A      1.431719   108A      1.443533   109A      1.465734  
     110A      1.477726   111A      1.500403   112A      1.520502  
     113A      1.555972   114A      1.572714   115A      1.591864  
     116A      1.610702   117A      1.619689   118A      1.637782  
     119A      1.662063   120A      1.673721   121A      1.706454  
     122A      1.729743   123A      1.758992   124A      1.793255  
     125A      1.819621   126A      1.868421   127A      1.902071  
     128A      1.925354   129A      1.927517   130A      1.962768  
     131A      1.990842   132A      2.014879   133A      2.036228  
     134A      2.081863   135A      2.101831   136A      2.112985  
     137A      2.217143   138A      2.228072   139A      2.286211  
     140A      2.312564   141A      2.351367   142A      2.376349  
     143A      2.380849   144A      2.433334   145A      2.460670  
     146A      2.498472   147A      2.515194   148A      2.532422  
     149A      2.624800   150A      2.636004   151A      2.650841  
     152A      2.745895   153A      2.772469   154A      2.808390  
     155A      2.818392   156A      2.847675   157A      2.857093  
     158A      2.903148   159A      2.913914   160A      2.931158  
     161A      2.952817   162A      2.986090   163A      3.000986  
     164A      3.016271   165A      3.045617   166A      3.064511  
     167A      3.091309   168A      3.134511   169A      3.152859  
     170A      3.178061   171A      3.195371   172A      3.222644  
     173A      3.240141   174A      3.267524   175A      3.277779  
     176A      3.287908   177A      3.303935   178A      3.329174  
     179A      3.339400   180A      3.371415   181A      3.378811  
     182A      3.403401   183A      3.414850   184A      3.425330  
     185A      3.438503   186A      3.461504   187A      3.482970  
     188A      3.491994   189A      3.498458   190A      3.524786  
     191A      3.534908   192A      3.552710   193A      3.573388  
     194A      3.603713   195A      3.613518   196A      3.631101  
     197A      3.660018   198A      3.674526   199A      3.684517  
     200A      3.703909   201A      3.724291   202A      3.746524  
     203A      3.760941   204A      3.774341   205A      3.817610  
     206A      3.842162   207A      3.858842   208A      3.867430  
     209A      3.906536   210A      3.910645   211A      3.926780  
     212A      3.961984   213A      3.978777   214A      4.002300  
     215A      4.018198   216A      4.034094   217A      4.051163  
     218A      4.066271   219A      4.094425   220A      4.112784  
     221A      4.138207   222A      4.144776   223A      4.163513  
     224A      4.178562   225A      4.212004   226A      4.220796  
     227A      4.256153   228A      4.278637   229A      4.281387  
     230A      4.301923   231A      4.325493   232A      4.331089  
     233A      4.345389   234A      4.375666   235A      4.401509  
     236A      4.415489   237A      4.425608   238A      4.456399  
     239A      4.459745   240A      4.489064   241A      4.502442  
     242A      4.551454   243A      4.553049   244A      4.568168  
     245A      4.604083   246A      4.622518   247A      4.629541  
     248A      4.656136   249A      4.665836   250A      4.706146  
     251A      4.737279   252A      4.760841   253A      4.794434  
     254A      4.801507   255A      4.852699   256A      4.870765  
     257A      4.896281   258A      4.906277   259A      4.989982  
     260A      5.022273   261A      5.070415   262A      5.087078  
     263A      5.138205   264A      5.150073   265A      5.181185  
     266A      5.221907   267A      5.250707   268A      5.254398  
     269A      5.294404   270A      5.317475   271A      5.327112  
     272A      5.349598   273A      5.367860   274A      5.423743  
     275A      5.495773   276A      5.501715   277A      5.534404  
     278A      5.598359   279A      5.633879   280A      5.653237  
     281A      5.673068   282A      5.676454   283A      5.685480  
     284A      5.715064   285A      5.748604   286A      5.798316  
     287A      5.861225   288A      5.876327   289A      5.968608  
     290A      6.011612   291A      6.056452   292A      6.082362  
     293A      6.084491   294A      6.116442   295A      6.158465  
     296A      6.188806   297A      6.198118   298A      6.223347  
     299A      6.255723   300A      6.339144   301A      6.419259  
     302A      6.474881   303A      6.618893   304A      6.636964  
     305A      6.690861   306A      6.708707   307A      6.761337  
     308A      6.794817   309A      6.827298   310A      6.898348  
     311A      6.924955   312A      6.965107   313A      6.981669  
     314A      7.029132   315A      7.051445   316A      7.157236  
     317A      7.190305   318A      7.230751   319A      7.331161  
     320A      7.365107   321A      7.372231   322A      7.379335  
     323A      7.404783   324A      7.509668   325A      7.536793  
     326A      7.579117   327A      7.656350   328A      7.735904  
     329A      7.805968   330A      8.085442   331A     10.029669  
     332A     10.501528   333A     12.062587   334A     12.912923  
     335A     13.450799   336A     13.651783   337A     14.190073  
     338A     14.564851  

    Final Occupation by Irrep:
              A 
    DOCC [    31 ]

  Energy converged.

  @DF-RHF Final Energy:  -434.70850964331436

   => Energetics <=

    Nuclear Repulsion Energy =            383.6628521314407863
    One-Electron Energy =               -1356.2710851036442818
    Two-Electron Energy =                 537.8997233288890811
    Total Energy =                       -434.7085096433144145



Properties will be evaluated at   0.000000,   0.000000,   0.000000 Bohr

Properties computed using the SCF density matrix

  Nuclear Dipole Moment: (a.u.)
     X:     0.9545      Y:     3.5942      Z:    -4.6128

  Electronic Dipole Moment: (a.u.)
     X:    -0.2892      Y:    -2.3185      Z:     4.3225

  Dipole Moment: (a.u.)
     X:     0.6653      Y:     1.2758      Z:    -0.2903     Total:     1.4678

  Dipole Moment: (Debye)
     X:     1.6910      Y:     3.2427      Z:    -0.7379     Total:     3.7308


*** tstop() called on hex15 at Thu Mar  1 17:06:44 2018
Module time:
	user time   =      41.50 seconds =       0.69 minutes
	system time =       0.78 seconds =       0.01 minutes
	total time  =         10 seconds =       0.17 minutes
Total time:
	user time   =      41.50 seconds =       0.69 minutes
	system time =       0.78 seconds =       0.01 minutes
	total time  =         10 seconds =       0.17 minutes

*** Psi4 exiting successfully. Buy a developer a beer!
