
    -----------------------------------------------------------------------
          Psi4: An Open-Source Ab Initio Electronic Structure Package
                               Psi4 1.2a1.dev875 

                         Git: Rev {symm_JK} 0ea9481 dirty


    R. M. Parrish, L. A. Burns, D. G. A. Smith, A. C. Simmonett,
    A. E. DePrince III, E. G. Hohenstein, U. Bozkaya, A. Yu. Sokolov,
    R. Di Remigio, R. M. Richard, J. F. Gonthier, A. M. James,
    H. R. McAlexander, A. Kumar, M. Saitow, X. Wang, B. P. Pritchard,
    P. Verma, H. F. Schaefer III, K. Patkowski, R. A. King, E. F. Valeev,
    F. A. Evangelista, J. M. Turney, T. D. Crawford, and C. D. Sherrill,
    J. Chem. Theory Comput. 13(7) pp 3185--3197 (2017).
    (doi: 10.1021/acs.jctc.7b00174)

    -----------------------------------------------------------------------


    Psi4 started on: Sunday, 04 March 2018 04:46PM

    Process ID:  21559
    PSIDATADIR: /theoryfs2/ds/schieber/Gits/mspsi4/objdir3/stage/usr/local/psi4/share/psi4
    Memory:     500.0 MiB
    Threads:    6
    
  ==> Input File <==

--------------------------------------------------------------------------
memory 60 Gb

molecule protein_63 {
0 1
 N   18.626  30.444   6.627
 C   17.853  29.516   5.837
 C   16.945  30.292   4.886
 O   15.843  30.678   5.237
 C   17.047  28.642   6.811
 C   16.316  27.513   6.146
 O   16.236  27.458   4.905
 O   15.762  26.696   6.882
 N    4.567  24.042   8.795
 C    4.886  22.777   8.145
 C    6.265  22.720   7.521
 O    6.723  23.689   6.900
 N   17.407  27.054  -1.437
 C   17.227  26.751  -0.026
 C   18.555  26.446   0.653
 O   19.003  25.309   0.692
 C   16.258  25.572   0.084
 C   15.759  25.336   1.493
 O   16.399  25.780   2.453
 O   14.731  24.675   1.645
 N   19.106  26.199   3.688
 C   18.957  25.372   4.876
 C   18.845  23.903   4.520
 O   18.660  23.054   5.417
 N   20.536  20.559   2.918
 C   21.779  19.912   2.496
 C   21.693  19.374   1.107
 O   22.642  19.502   0.361
 C   22.169  18.827   3.447
 C   22.272  19.337   4.844
 O   22.714  20.482   5.029
 O   21.836  18.647   5.778
 H   18.180  30.990   7.295
 H   18.510  28.835   5.249
 H   16.336  29.276   7.377
 H   17.778  28.186   7.516
 H   15.845  26.702   7.843
 H    4.436  24.871   8.195
 H    4.744  21.930   8.802
 H    4.143  22.632   7.335
 H   17.860  26.421  -2.023
 H   16.724  27.595   0.500
 H   16.724  24.663  -0.337
 H   15.363  25.845  -0.519
 H   16.737  25.171   3.109
 H   18.314  26.771   3.377
 H   18.015  25.631   5.391
 H   19.792  25.567   5.577
 H   19.976  20.073   3.597
 H   22.602  20.664   2.537
 H   23.175  18.459   3.144
 H   21.465  17.966   3.392
 H   21.492  17.752   5.634
 H   19.646  30.419   6.619
 H   17.295  30.415   3.850
 H    4.454  24.117   9.806
 H    6.887  21.864   7.822
 H   16.947  27.858  -1.864
 H   19.060  27.284   1.155
 H   20.034  26.347   3.290
 H   18.824  23.654   3.449
 H   20.197  21.395   2.443
 H   20.727  18.956   0.786
}

set {
basis aug-cc-pvdz
scf_type df
guess sad
DF_SCF_TYPE SYMM_JK
}

energy('HF')
--------------------------------------------------------------------------

  Memory set to  55.879 GiB by Python driver.

*** tstart() called on hex15
*** at Sun Mar  4 16:46:27 2018

   => Loading Basis Set <=

    Name: AUG-CC-PVDZ
    Role: ORBITAL
    Keyword: BASIS
    atoms 1, 9, 13, 21, 25                                   entry N          line   214 file /theoryfs2/ds/schieber/Gits/mspsi4/objdir3/stage/usr/local/psi4/share/psi4/basis/aug-cc-pvdz.gbs 
    atoms 2-3, 5-6, 10-11, 14-15, 17-18, 22-23, 26-27, 29-30 entry C          line   178 file /theoryfs2/ds/schieber/Gits/mspsi4/objdir3/stage/usr/local/psi4/share/psi4/basis/aug-cc-pvdz.gbs 
    atoms 4, 7-8, 12, 16, 19-20, 24, 28, 31-32               entry O          line   250 file /theoryfs2/ds/schieber/Gits/mspsi4/objdir3/stage/usr/local/psi4/share/psi4/basis/aug-cc-pvdz.gbs 
    atoms 33-63                                              entry H          line    36 file /theoryfs2/ds/schieber/Gits/mspsi4/objdir3/stage/usr/local/psi4/share/psi4/basis/aug-cc-pvdz.gbs 


         ---------------------------------------------------------
                                   SCF
            by Justin Turney, Rob Parrish, Andy Simmonett
                             and Daniel Smith
                              RHF Reference
                        6 Threads,  57220 MiB Core
         ---------------------------------------------------------

  ==> Geometry <==

    Molecular point group: c1
    Full point group: C1

    Geometry (in Angstrom), charge = 0, multiplicity = 1:

       Center              X                  Y                   Z               Mass       
    ------------   -----------------  -----------------  -----------------  -----------------
           N          1.657504219370     5.864960045694     2.581113844373    14.003074004780
           C          0.884504219370     4.936960045694     1.791113844373    12.000000000000
           C         -0.023495780630     5.712960045694     0.840113844373    12.000000000000
           O         -1.125495780630     6.098960045694     1.191113844373    15.994914619560
           C          0.078504219370     4.062960045694     2.765113844373    12.000000000000
           C         -0.652495780630     2.933960045694     2.100113844373    12.000000000000
           O         -0.732495780630     2.878960045694     0.859113844373    15.994914619560
           O         -1.206495780630     2.116960045694     2.836113844373    15.994914619560
           N        -12.401495780630    -0.537039954306     4.749113844373    14.003074004780
           C        -12.082495780630    -1.802039954306     4.099113844373    12.000000000000
           C        -10.703495780630    -1.859039954306     3.475113844373    12.000000000000
           O        -10.245495780630    -0.890039954306     2.854113844373    15.994914619560
           N          0.438504219370     2.474960045694    -5.482886155627    14.003074004780
           C          0.258504219370     2.171960045694    -4.071886155627    12.000000000000
           C          1.586504219370     1.866960045694    -3.392886155627    12.000000000000
           O          2.034504219370     0.729960045694    -3.353886155627    15.994914619560
           C         -0.710495780630     0.992960045694    -3.961886155627    12.000000000000
           C         -1.209495780630     0.756960045694    -2.552886155627    12.000000000000
           O         -0.569495780630     1.200960045694    -1.592886155627    15.994914619560
           O         -2.237495780630     0.095960045694    -2.400886155627    15.994914619560
           N          2.137504219370     1.619960045694    -0.357886155627    14.003074004780
           C          1.988504219370     0.792960045694     0.830113844373    12.000000000000
           C          1.876504219370    -0.676039954306     0.474113844373    12.000000000000
           O          1.691504219370    -1.525039954306     1.371113844373    15.994914619560
           N          3.567504219370    -4.020039954306    -1.127886155627    14.003074004780
           C          4.810504219370    -4.667039954306    -1.549886155627    12.000000000000
           C          4.724504219370    -5.205039954306    -2.938886155627    12.000000000000
           O          5.673504219370    -5.077039954306    -3.684886155627    15.994914619560
           C          5.200504219370    -5.752039954306    -0.598886155627    12.000000000000
           C          5.303504219370    -5.242039954306     0.798113844373    12.000000000000
           O          5.745504219370    -4.097039954306     0.983113844373    15.994914619560
           O          4.867504219370    -5.932039954306     1.732113844373    15.994914619560
           H          1.211504219370     6.410960045694     3.249113844373     1.007825032070
           H          1.541504219370     4.255960045694     1.203113844373     1.007825032070
           H         -0.632495780630     4.696960045694     3.331113844373     1.007825032070
           H          0.809504219370     3.606960045694     3.470113844373     1.007825032070
           H         -1.123495780630     2.122960045694     3.797113844373     1.007825032070
           H        -12.532495780630     0.291960045694     4.149113844373     1.007825032070
           H        -12.224495780630    -2.649039954306     4.756113844373     1.007825032070
           H        -12.825495780630    -1.947039954306     3.289113844373     1.007825032070
           H          0.891504219370     1.841960045694    -6.068886155627     1.007825032070
           H         -0.244495780630     3.015960045694    -3.545886155627     1.007825032070
           H         -0.244495780630     0.083960045694    -4.382886155627     1.007825032070
           H         -1.605495780630     1.265960045694    -4.564886155627     1.007825032070
           H         -0.231495780630     0.591960045694    -0.936886155627     1.007825032070
           H          1.345504219370     2.191960045694    -0.668886155627     1.007825032070
           H          1.046504219370     1.051960045694     1.345113844373     1.007825032070
           H          2.823504219370     0.987960045694     1.531113844373     1.007825032070
           H          3.007504219370    -4.506039954306    -0.448886155627     1.007825032070
           H          5.633504219370    -3.915039954306    -1.508886155627     1.007825032070
           H          6.206504219370    -6.120039954306    -0.901886155627     1.007825032070
           H          4.496504219370    -6.613039954306    -0.653886155627     1.007825032070
           H          4.523504219370    -6.827039954306     1.588113844373     1.007825032070
           H          2.677504219370     5.839960045694     2.573113844373     1.007825032070
           H          0.326504219370     5.835960045694    -0.195886155627     1.007825032070
           H        -12.514495780630    -0.462039954306     5.760113844373     1.007825032070
           H        -10.081495780630    -2.715039954306     3.776113844373     1.007825032070
           H         -0.021495780630     3.278960045694    -5.909886155627     1.007825032070
           H          2.091504219370     2.704960045694    -2.890886155627     1.007825032070
           H          3.065504219370     1.767960045694    -0.755886155627     1.007825032070
           H          1.855504219370    -0.925039954306    -0.596886155627     1.007825032070
           H          3.228504219370    -3.184039954306    -1.602886155627     1.007825032070
           H          3.758504219370    -5.623039954306    -3.259886155627     1.007825032070

  Running in c1 symmetry.

  Rotational constants: A =      0.00221  B =      0.00111  C =      0.00093 [cm^-1]
  Rotational constants: A =     66.16714  B =     33.30218  C =     27.81539 [MHz]
  Nuclear repulsion = 2982.748493552713626

  Charge       = 0
  Multiplicity = 1
  Electrons    = 250
  Nalpha       = 125
  Nbeta        = 125

  ==> Algorithm <==

  SCF Algorithm Type is DF.
  DIIS enabled.
  MOM disabled.
  Fractional occupation disabled.
  Guess Type is SAD.
  Energy threshold   = 1.00e-06
  Density threshold  = 1.00e-06
  Integral threshold = 0.00e+00

  ==> Primary Basis <==

  Basis Set: AUG-CC-PVDZ
    Blend: AUG-CC-PVDZ
    Number of shells: 443
    Number of basis function: 1015
    Number of Cartesian functions: 1079
    Spherical Harmonics?: true
    Max angular momentum: 2

   => Loading Basis Set <=

    Name: (AUG-CC-PVDZ AUX)
    Role: JKFIT
    Keyword: DF_BASIS_SCF
    atoms 1, 9, 13, 21, 25                                   entry N          line   212 file /theoryfs2/ds/schieber/Gits/mspsi4/objdir3/stage/usr/local/psi4/share/psi4/basis/aug-cc-pvdz-jkfit.gbs 
    atoms 2-3, 5-6, 10-11, 14-15, 17-18, 22-23, 26-27, 29-30 entry C          line   154 file /theoryfs2/ds/schieber/Gits/mspsi4/objdir3/stage/usr/local/psi4/share/psi4/basis/aug-cc-pvdz-jkfit.gbs 
    atoms 4, 7-8, 12, 16, 19-20, 24, 28, 31-32               entry O          line   270 file /theoryfs2/ds/schieber/Gits/mspsi4/objdir3/stage/usr/local/psi4/share/psi4/basis/aug-cc-pvdz-jkfit.gbs 
    atoms 33-63                                              entry H          line    70 file /theoryfs2/ds/schieber/Gits/mspsi4/objdir3/stage/usr/local/psi4/share/psi4/basis/aug-cc-pvdz-jkfit.gbs 

  ==> Pre-Iterations <==

   -------------------------------------------------------
    Irrep   Nso     Nmo     Nalpha   Nbeta   Ndocc  Nsocc
   -------------------------------------------------------
     A       1015    1015       0       0       0       0
   -------------------------------------------------------
    Total    1015    1015     125     125     125       0
   -------------------------------------------------------

  ==> Integral Setup <==


    ==> DF_Helper <==
      nao           = 1015
      naux          = 3744
      Scwarz cutoff = 1.000000E-12
      mem (doubles) = 5625000000
      nthreads      = 6
      Algorithm     = STORE
      AO_core?      = 1
      MO_core?      = 0
      hold metric   = 0
      metric power  = -5.000000E-01
  Fitting condition = 1.000000E-12
  Mask sparsity (%) = (41.302240)


  Minimum eigenvalue in the overlap matrix is 6.1830256969E-06.
  Using Symmetric Orthogonalization.

  SCF Guess: Superposition of Atomic Densities via on-the-fly atomic UHF.

  ==> Iterations <==

                           Total Energy        Delta E     RMS |[F,P]|

   @DF-RHF iter   0: -1732.36706185279900   -1.73237e+03   2.61331e-02 
   @DF-RHF iter   1: -1718.54668348707492    1.38204e+01   3.45601e-03 
   @DF-RHF iter   2: -1719.27955914021413   -7.32876e-01   2.56327e-03 DIIS
   @DF-RHF iter   3: -1719.70947286405749   -4.29914e-01   4.68893e-04 DIIS
   @DF-RHF iter   4: -1719.74417260943028   -3.46997e-02   1.79694e-04 DIIS
   @DF-RHF iter   5: -1719.74992322707408   -5.75062e-03   7.86015e-05 DIIS
   @DF-RHF iter   6: -1719.75157092211430   -1.64770e-03   3.74013e-05 DIIS
   @DF-RHF iter   7: -1719.75202614019440   -4.55218e-04   1.75431e-05 DIIS
   @DF-RHF iter   8: -1719.75213636651824   -1.10226e-04   7.91242e-06 DIIS
   @DF-RHF iter   9: -1719.75216344228124   -2.70758e-05   3.60442e-06 DIIS
   @DF-RHF iter  10: -1719.75216996156723   -6.51929e-06   1.69150e-06 DIIS
   @DF-RHF iter  11: -1719.75217139069173   -1.42912e-06   6.22171e-07 DIIS
   @DF-RHF iter  12: -1719.75217154831807   -1.57626e-07   2.83027e-07 DIIS

  ==> Post-Iterations <==

    Orbital Energies (a.u.)
    -----------------------

    Doubly Occupied:                                                      

       1A    -20.654415     2A    -20.646552     3A    -20.612740  
       4A    -20.580857     5A    -20.572656     6A    -20.570742  
       7A    -20.570637     8A    -20.567796     9A    -20.552167  
      10A    -20.533320    11A    -20.528569    12A    -15.568294  
      13A    -15.562350    14A    -15.557680    15A    -15.553529  
      16A    -15.552963    17A    -11.406593    18A    -11.393586  
      19A    -11.376829    20A    -11.353677    21A    -11.346410  
      22A    -11.344360    23A    -11.340259    24A    -11.335951  
      25A    -11.301753    26A    -11.296239    27A    -11.287291  
      28A    -11.281777    29A    -11.280613    30A    -11.272032  
      31A    -11.270177    32A    -11.244921    33A     -1.532335  
      34A     -1.518112    35A     -1.504095    36A     -1.403140  
      37A     -1.398156    38A     -1.397206    39A     -1.375961  
      40A     -1.373255    41A     -1.362379    42A     -1.345774  
      43A     -1.338289    44A     -1.216792    45A     -1.205664  
      46A     -1.196532    47A     -1.187641    48A     -1.172027  
      49A     -1.057964    50A     -1.057332    51A     -1.045872  
      52A     -0.969066    53A     -0.966274    54A     -0.951784  
      55A     -0.942605    56A     -0.939429    57A     -0.908805  
      58A     -0.893860    59A     -0.877691    60A     -0.810980  
      61A     -0.804099    62A     -0.800027    63A     -0.797276  
      64A     -0.795939    65A     -0.748474    66A     -0.735029  
      67A     -0.733211    68A     -0.719124    69A     -0.713101  
      70A     -0.706697    71A     -0.700020    72A     -0.696481  
      73A     -0.693985    74A     -0.688951    75A     -0.686087  
      76A     -0.681134    77A     -0.667766    78A     -0.666875  
      79A     -0.663510    80A     -0.659702    81A     -0.658650  
      82A     -0.654994    83A     -0.649795    84A     -0.644538  
      85A     -0.636144    86A     -0.631600    87A     -0.630804  
      88A     -0.630075    89A     -0.627407    90A     -0.623286  
      91A     -0.610941    92A     -0.609947    93A     -0.590657  
      94A     -0.577374    95A     -0.572792    96A     -0.567904  
      97A     -0.562748    98A     -0.559071    99A     -0.550674  
     100A     -0.549344   101A     -0.533626   102A     -0.531221  
     103A     -0.530354   104A     -0.521296   105A     -0.515433  
     106A     -0.506348   107A     -0.501567   108A     -0.490033  
     109A     -0.488197   110A     -0.473753   111A     -0.461570  
     112A     -0.459494   113A     -0.456287   114A     -0.447992  
     115A     -0.443680   116A     -0.442456   117A     -0.440738  
     118A     -0.439534   119A     -0.434798   120A     -0.432290  
     121A     -0.385081   122A     -0.380703   123A     -0.376774  
     124A     -0.375284   125A     -0.368041  

    Virtual:                                                              

     126A      0.019075   127A      0.022065   128A      0.025601  
     129A      0.032222   130A      0.033562   131A      0.040845  
     132A      0.042243   133A      0.046394   134A      0.046847  
     135A      0.050503   136A      0.052197   137A      0.053574  
     138A      0.055897   139A      0.057618   140A      0.060211  
     141A      0.061853   142A      0.068515   143A      0.070901  
     144A      0.072242   145A      0.074119   146A      0.078018  
     147A      0.078593   148A      0.082056   149A      0.084944  
     150A      0.089153   151A      0.091342   152A      0.093355  
     153A      0.094586   154A      0.096352   155A      0.101687  
     156A      0.104520   157A      0.105876   158A      0.107950  
     159A      0.110763   160A      0.114922   161A      0.116417  
     162A      0.117848   163A      0.120414   164A      0.121184  
     165A      0.123068   166A      0.125044   167A      0.126392  
     168A      0.129821   169A      0.130926   170A      0.132290  
     171A      0.136642   172A      0.140306   173A      0.141706  
     174A      0.145591   175A      0.146419   176A      0.147978  
     177A      0.149524   178A      0.151417   179A      0.152006  
     180A      0.153597   181A      0.156063   182A      0.156989  
     183A      0.159257   184A      0.160794   185A      0.161513  
     186A      0.162236   187A      0.165162   188A      0.166390  
     189A      0.167835   190A      0.169182   191A      0.171230  
     192A      0.172119   193A      0.174567   194A      0.176089  
     195A      0.179700   196A      0.179751   197A      0.181870  
     198A      0.182863   199A      0.186037   200A      0.186560  
     201A      0.188826   202A      0.190851   203A      0.194511  
     204A      0.195576   205A      0.196597   206A      0.197547  
     207A      0.199628   208A      0.205426   209A      0.206358  
     210A      0.206805   211A      0.209784   212A      0.212266  
     213A      0.213965   214A      0.216322   215A      0.218228  
     216A      0.219836   217A      0.222518   218A      0.226365  
     219A      0.228125   220A      0.229890   221A      0.230302  
     222A      0.231495   223A      0.234132   224A      0.235770  
     225A      0.240490   226A      0.241581   227A      0.244182  
     228A      0.245904   229A      0.252193   230A      0.252816  
     231A      0.255966   232A      0.262259   233A      0.263777  
     234A      0.265100   235A      0.267219   236A      0.270151  
     237A      0.273161   238A      0.274550   239A      0.278246  
     240A      0.281010   241A      0.281359   242A      0.284327  
     243A      0.288334   244A      0.290807   245A      0.291784  
     246A      0.294666   247A      0.296551   248A      0.298118  
     249A      0.301382   250A      0.302713   251A      0.309499  
     252A      0.311174   253A      0.313137   254A      0.314927  
     255A      0.317799   256A      0.319880   257A      0.322289  
     258A      0.323678   259A      0.323992   260A      0.325880  
     261A      0.330328   262A      0.332857   263A      0.334619  
     264A      0.338816   265A      0.341047   266A      0.342582  
     267A      0.344786   268A      0.346871   269A      0.350049  
     270A      0.354141   271A      0.356015   272A      0.356877  
     273A      0.358316   274A      0.360177   275A      0.363245  
     276A      0.363368   277A      0.364402   278A      0.365431  
     279A      0.367862   280A      0.368039   281A      0.368949  
     282A      0.372788   283A      0.374973   284A      0.376464  
     285A      0.378074   286A      0.379736   287A      0.383117  
     288A      0.383852   289A      0.388958   290A      0.389451  
     291A      0.392374   292A      0.392992   293A      0.397206  
     294A      0.398800   295A      0.401205   296A      0.403663  
     297A      0.404429   298A      0.405943   299A      0.408143  
     300A      0.411772   301A      0.413097   302A      0.415363  
     303A      0.416456   304A      0.417281   305A      0.417652  
     306A      0.419627   307A      0.422096   308A      0.425845  
     309A      0.427514   310A      0.429743   311A      0.433071  
     312A      0.434762   313A      0.437615   314A      0.437698  
     315A      0.439012   316A      0.440848   317A      0.444907  
     318A      0.448121   319A      0.448315   320A      0.450821  
     321A      0.452408   322A      0.456512   323A      0.458824  
     324A      0.461374   325A      0.464600   326A      0.466738  
     327A      0.469158   328A      0.472794   329A      0.473720  
     330A      0.474515   331A      0.477866   332A      0.478550  
     333A      0.482711   334A      0.484634   335A      0.485459  
     336A      0.489234   337A      0.492092   338A      0.494776  
     339A      0.497479   340A      0.497996   341A      0.500208  
     342A      0.502573   343A      0.504221   344A      0.506251  
     345A      0.506348   346A      0.510069   347A      0.512159  
     348A      0.512482   349A      0.515921   350A      0.519095  
     351A      0.519962   352A      0.522897   353A      0.527183  
     354A      0.529270   355A      0.530739   356A      0.534237  
     357A      0.537228   358A      0.538193   359A      0.538683  
     360A      0.541876   361A      0.542665   362A      0.544948  
     363A      0.546749   364A      0.548562   365A      0.549871  
     366A      0.551769   367A      0.554552   368A      0.554902  
     369A      0.562083   370A      0.567321   371A      0.569178  
     372A      0.572300   373A      0.572987   374A      0.578145  
     375A      0.579342   376A      0.581857   377A      0.586919  
     378A      0.589072   379A      0.592690   380A      0.595698  
     381A      0.596031   382A      0.598338   383A      0.599970  
     384A      0.600888   385A      0.604713   386A      0.606935  
     387A      0.609782   388A      0.611681   389A      0.613407  
     390A      0.614505   391A      0.618299   392A      0.621073  
     393A      0.625912   394A      0.628598   395A      0.629303  
     396A      0.633555   397A      0.634911   398A      0.636851  
     399A      0.638572   400A      0.644310   401A      0.645123  
     402A      0.645985   403A      0.649467   404A      0.654383  
     405A      0.654560   406A      0.657768   407A      0.659136  
     408A      0.662001   409A      0.662281   410A      0.664145  
     411A      0.666616   412A      0.668626   413A      0.673950  
     414A      0.675747   415A      0.678743   416A      0.679495  
     417A      0.682094   418A      0.688336   419A      0.690425  
     420A      0.692416   421A      0.697101   422A      0.698081  
     423A      0.703417   424A      0.705243   425A      0.707448  
     426A      0.708248   427A      0.710274   428A      0.714566  
     429A      0.717434   430A      0.718242   431A      0.718751  
     432A      0.720647   433A      0.722622   434A      0.727487  
     435A      0.730232   436A      0.732548   437A      0.735945  
     438A      0.738726   439A      0.741473   440A      0.744779  
     441A      0.749017   442A      0.750987   443A      0.753415  
     444A      0.756569   445A      0.758069   446A      0.760485  
     447A      0.762054   448A      0.763925   449A      0.772018  
     450A      0.772093   451A      0.773136   452A      0.775890  
     453A      0.778437   454A      0.781517   455A      0.785964  
     456A      0.788525   457A      0.791567   458A      0.793705  
     459A      0.795019   460A      0.797470   461A      0.799810  
     462A      0.801441   463A      0.803096   464A      0.807660  
     465A      0.809197   466A      0.812598   467A      0.816745  
     468A      0.818734   469A      0.820301   470A      0.825239  
     471A      0.827570   472A      0.829550   473A      0.831875  
     474A      0.837319   475A      0.840792   476A      0.844562  
     477A      0.846179   478A      0.848500   479A      0.852630  
     480A      0.855171   481A      0.855758   482A      0.860179  
     483A      0.864026   484A      0.866184   485A      0.870998  
     486A      0.873571   487A      0.875532   488A      0.876895  
     489A      0.880026   490A      0.887081   491A      0.891530  
     492A      0.895032   493A      0.895790   494A      0.902343  
     495A      0.904152   496A      0.905806   497A      0.906157  
     498A      0.911690   499A      0.912291   500A      0.918370  
     501A      0.921220   502A      0.922071   503A      0.930061  
     504A      0.933281   505A      0.934842   506A      0.938886  
     507A      0.942270   508A      0.945879   509A      0.948439  
     510A      0.952701   511A      0.960395   512A      0.964588  
     513A      0.967349   514A      0.969881   515A      0.971968  
     516A      0.972659   517A      0.973650   518A      0.975417  
     519A      0.981382   520A      0.983456   521A      0.990326  
     522A      0.995814   523A      0.996037   524A      0.997770  
     525A      1.001274   526A      1.001989   527A      1.007762  
     528A      1.011037   529A      1.011127   530A      1.016908  
     531A      1.023269   532A      1.026838   533A      1.027576  
     534A      1.035194   535A      1.039920   536A      1.043007  
     537A      1.046369   538A      1.047873   539A      1.057500  
     540A      1.064481   541A      1.065068   542A      1.067326  
     543A      1.072533   544A      1.075392   545A      1.079862  
     546A      1.084361   547A      1.086702   548A      1.089487  
     549A      1.092655   550A      1.095800   551A      1.096833  
     552A      1.097833   553A      1.102140   554A      1.105965  
     555A      1.110809   556A      1.117784   557A      1.119019  
     558A      1.124501   559A      1.132515   560A      1.138185  
     561A      1.142311   562A      1.143509   563A      1.145688  
     564A      1.147265   565A      1.151130   566A      1.154875  
     567A      1.163213   568A      1.164165   569A      1.172476  
     570A      1.176082   571A      1.183388   572A      1.190753  
     573A      1.196642   574A      1.202192   575A      1.208689  
     576A      1.209569   577A      1.218610   578A      1.221944  
     579A      1.226520   580A      1.230203   581A      1.237147  
     582A      1.240857   583A      1.248646   584A      1.252137  
     585A      1.255191   586A      1.257429   587A      1.258475  
     588A      1.265784   589A      1.266997   590A      1.270905  
     591A      1.282082   592A      1.283099   593A      1.291551  
     594A      1.291677   595A      1.294300   596A      1.303284  
     597A      1.305737   598A      1.306428   599A      1.312688  
     600A      1.314360   601A      1.315937   602A      1.317926  
     603A      1.321659   604A      1.330787   605A      1.333662  
     606A      1.340000   607A      1.349621   608A      1.350812  
     609A      1.356630   610A      1.360809   611A      1.366537  
     612A      1.373167   613A      1.375231   614A      1.380504  
     615A      1.389379   616A      1.390514   617A      1.396462  
     618A      1.408023   619A      1.411848   620A      1.419554  
     621A      1.422468   622A      1.429067   623A      1.434668  
     624A      1.437697   625A      1.440045   626A      1.447865  
     627A      1.449980   628A      1.453076   629A      1.455480  
     630A      1.459269   631A      1.466940   632A      1.470573  
     633A      1.477007   634A      1.481030   635A      1.486041  
     636A      1.491884   637A      1.495902   638A      1.500619  
     639A      1.504421   640A      1.506765   641A      1.512984  
     642A      1.514084   643A      1.520956   644A      1.522585  
     645A      1.525419   646A      1.527578   647A      1.533637  
     648A      1.542830   649A      1.546650   650A      1.561086  
     651A      1.570663   652A      1.574158   653A      1.577936  
     654A      1.585026   655A      1.590877   656A      1.591310  
     657A      1.591905   658A      1.607688   659A      1.610992  
     660A      1.615080   661A      1.616232   662A      1.622602  
     663A      1.628857   664A      1.639529   665A      1.643743  
     666A      1.652010   667A      1.658068   668A      1.661774  
     669A      1.671531   670A      1.682317   671A      1.682523  
     672A      1.686759   673A      1.694209   674A      1.697947  
     675A      1.701395   676A      1.705367   677A      1.716638  
     678A      1.725980   679A      1.729632   680A      1.738163  
     681A      1.746139   682A      1.752147   683A      1.753340  
     684A      1.763856   685A      1.766255   686A      1.769217  
     687A      1.777067   688A      1.782848   689A      1.788250  
     690A      1.794289   691A      1.798922   692A      1.803019  
     693A      1.806412   694A      1.819404   695A      1.830228  
     696A      1.832080   697A      1.833094   698A      1.834455  
     699A      1.838719   700A      1.843448   701A      1.859921  
     702A      1.862568   703A      1.866389   704A      1.870117  
     705A      1.873549   706A      1.875676   707A      1.881417  
     708A      1.888362   709A      1.889523   710A      1.893066  
     711A      1.901599   712A      1.912095   713A      1.916949  
     714A      1.922267   715A      1.927560   716A      1.934064  
     717A      1.939847   718A      1.941739   719A      1.948457  
     720A      1.950069   721A      1.954659   722A      1.959609  
     723A      1.961729   724A      1.966751   725A      1.970096  
     726A      1.982357   727A      1.982585   728A      1.983746  
     729A      1.991332   730A      1.996019   731A      2.002652  
     732A      2.010994   733A      2.015173   734A      2.022897  
     735A      2.025962   736A      2.031702   737A      2.033605  
     738A      2.034299   739A      2.037021   740A      2.042140  
     741A      2.047892   742A      2.057378   743A      2.065925  
     744A      2.069089   745A      2.069952   746A      2.079273  
     747A      2.081711   748A      2.086070   749A      2.089938  
     750A      2.090639   751A      2.096877   752A      2.101559  
     753A      2.106497   754A      2.109950   755A      2.120780  
     756A      2.122139   757A      2.123125   758A      2.125759  
     759A      2.130561   760A      2.139976   761A      2.140917  
     762A      2.141235   763A      2.148411   764A      2.149356  
     765A      2.155921   766A      2.160276   767A      2.174223  
     768A      2.177492   769A      2.188244   770A      2.190363  
     771A      2.192966   772A      2.199787   773A      2.202770  
     774A      2.203457   775A      2.211127   776A      2.217901  
     777A      2.221313   778A      2.226846   779A      2.231868  
     780A      2.234238   781A      2.238702   782A      2.245150  
     783A      2.250422   784A      2.263665   785A      2.265879  
     786A      2.270363   787A      2.271487   788A      2.274550  
     789A      2.288573   790A      2.289527   791A      2.293365  
     792A      2.296868   793A      2.305741   794A      2.309413  
     795A      2.313976   796A      2.318767   797A      2.322944  
     798A      2.330459   799A      2.334278   800A      2.335186  
     801A      2.338719   802A      2.342511   803A      2.349093  
     804A      2.353999   805A      2.359003   806A      2.361571  
     807A      2.366517   808A      2.368739   809A      2.370671  
     810A      2.371821   811A      2.377133   812A      2.382855  
     813A      2.387032   814A      2.396045   815A      2.402824  
     816A      2.406595   817A      2.414422   818A      2.414893  
     819A      2.423682   820A      2.424732   821A      2.435762  
     822A      2.437568   823A      2.443430   824A      2.452257  
     825A      2.457072   826A      2.463953   827A      2.470591  
     828A      2.477011   829A      2.481529   830A      2.487618  
     831A      2.489127   832A      2.495314   833A      2.499195  
     834A      2.506140   835A      2.509920   836A      2.516490  
     837A      2.520438   838A      2.526893   839A      2.533146  
     840A      2.536027   841A      2.541345   842A      2.544801  
     843A      2.547656   844A      2.551261   845A      2.557594  
     846A      2.561052   847A      2.573871   848A      2.575506  
     849A      2.577992   850A      2.585515   851A      2.595446  
     852A      2.600671   853A      2.609119   854A      2.615537  
     855A      2.619360   856A      2.625101   857A      2.640094  
     858A      2.642106   859A      2.643073   860A      2.648167  
     861A      2.651810   862A      2.664475   863A      2.680599  
     864A      2.684882   865A      2.690406   866A      2.696980  
     867A      2.716434   868A      2.726639   869A      2.730677  
     870A      2.737431   871A      2.738359   872A      2.738641  
     873A      2.742866   874A      2.755140   875A      2.758078  
     876A      2.762323   877A      2.767876   878A      2.770412  
     879A      2.776332   880A      2.796555   881A      2.796702  
     882A      2.807187   883A      2.811532   884A      2.824423  
     885A      2.830396   886A      2.845693   887A      2.854075  
     888A      2.855679   889A      2.864169   890A      2.874257  
     891A      2.879398   892A      2.881816   893A      2.884091  
     894A      2.888787   895A      2.904943   896A      2.907233  
     897A      2.915092   898A      2.917195   899A      2.924698  
     900A      2.936299   901A      2.941360   902A      2.948024  
     903A      2.948711   904A      2.958815   905A      2.966001  
     906A      2.991339   907A      2.997774   908A      3.007810  
     909A      3.009459   910A      3.019059   911A      3.021829  
     912A      3.033077   913A      3.035008   914A      3.053243  
     915A      3.054936   916A      3.073167   917A      3.084954  
     918A      3.105887   919A      3.114697   920A      3.119346  
     921A      3.119463   922A      3.136607   923A      3.171310  
     924A      3.178801   925A      3.182545   926A      3.187827  
     927A      3.190276   928A      3.225447   929A      3.237955  
     930A      3.274218   931A      3.282348   932A      3.307348  
     933A      3.331236   934A      3.336280   935A      3.369500  
     936A      3.385078   937A      3.411638   938A      3.423100  
     939A      3.425848   940A      3.440732   941A      3.462432  
     942A      3.470961   943A      3.472572   944A      3.476228  
     945A      3.503220   946A      3.562461   947A      3.577651  
     948A      3.580796   949A      3.594928   950A      3.601879  
     951A      3.642952   952A      3.644573   953A      3.650123  
     954A      3.657507   955A      3.692273   956A      3.697975  
     957A      3.716241   958A      3.736941   959A      3.742065  
     960A      3.748763   961A      3.750995   962A      3.755312  
     963A      3.760499   964A      3.763002   965A      3.768105  
     966A      3.773279   967A      3.790011   968A      3.792252  
     969A      3.792500   970A      3.799454   971A      3.813867  
     972A      3.817076   973A      3.821187   974A      3.824885  
     975A      3.831989   976A      3.838711   977A      3.842022  
     978A      3.846586   979A      3.857923   980A      3.869872  
     981A      3.873041   982A      3.886490   983A      3.888779  
     984A      3.895972   985A      3.929762   986A      3.936364  
     987A      3.942224   988A      3.946529   989A      3.955662  
     990A      3.963196   991A      3.963765   992A      3.973721  
     993A      3.976447   994A      3.979261   995A      3.990851  
     996A      4.009854   997A      4.014793   998A      4.029301  
     999A      4.068943  1000A      4.086314  1001A      4.086734  
    1002A      4.093733  1003A      4.109002  1004A      4.127288  
    1005A      4.136691  1006A      4.173298  1007A      4.184217  
    1008A      4.188367  1009A      4.199274  1010A      4.240905  
    1011A      4.285071  1012A      4.355080  1013A      4.400979  
    1014A      4.405580  1015A      4.464117  

    Final Occupation by Irrep:
              A 
    DOCC [   125 ]

  Energy converged.

  @DF-RHF Final Energy: -1719.75217154831807

   => Energetics <=

    Nuclear Repulsion Energy =           2982.7484935527136258
    One-Electron Energy =               -8292.6026296960881155
    Two-Electron Energy =                3590.1019645950564154
    Total Energy =                      -1719.7521715483180742



Properties will be evaluated at   0.000000,   0.000000,   0.000000 Bohr

Properties computed using the SCF density matrix

  Nuclear Dipole Moment: (a.u.)
     X:   -12.8500      Y:     5.9243      Z:     4.6194

  Electronic Dipole Moment: (a.u.)
     X:    12.8494      Y:    -6.0781      Z:    -2.6544

  Dipole Moment: (a.u.)
     X:    -0.0006      Y:    -0.1538      Z:     1.9650     Total:     1.9710

  Dipole Moment: (Debye)
     X:    -0.0016      Y:    -0.3909      Z:     4.9944     Total:     5.0097


*** tstop() called on hex15 at Sun Mar  4 16:53:09 2018
Module time:
	user time   =     914.58 seconds =      15.24 minutes
	system time =      10.43 seconds =       0.17 minutes
	total time  =        402 seconds =       6.70 minutes
Total time:
	user time   =     914.58 seconds =      15.24 minutes
	system time =      10.43 seconds =       0.17 minutes
	total time  =        402 seconds =       6.70 minutes

*** Psi4 exiting successfully. Buy a developer a beer!
