
    -----------------------------------------------------------------------
          Psi4: An Open-Source Ab Initio Electronic Structure Package
                               Psi4 1.2a1.dev875 

                         Git: Rev {symm_JK} 0ea9481 dirty


    R. M. Parrish, L. A. Burns, D. G. A. Smith, A. C. Simmonett,
    A. E. DePrince III, E. G. Hohenstein, U. Bozkaya, A. Yu. Sokolov,
    R. Di Remigio, R. M. Richard, J. F. Gonthier, A. M. James,
    H. R. McAlexander, A. Kumar, M. Saitow, X. Wang, B. P. Pritchard,
    P. Verma, H. F. Schaefer III, K. Patkowski, R. A. King, E. F. Valeev,
    F. A. Evangelista, J. M. Turney, T. D. Crawford, and C. D. Sherrill,
    J. Chem. Theory Comput. 13(7) pp 3185--3197 (2017).
    (doi: 10.1021/acs.jctc.7b00174)

    -----------------------------------------------------------------------


    Psi4 started on: Thursday, 01 March 2018 05:07PM

    Process ID:  28125
    PSIDATADIR: /theoryfs2/ds/schieber/Gits/mspsi4/objdir3/stage/usr/local/psi4/share/psi4
    Memory:     500.0 MiB
    Threads:    6
    
  ==> Input File <==

--------------------------------------------------------------------------
memory 60 Gb

molecule protein_39 {
0 1
 N   18.626  30.444   6.627
 C   17.853  29.516   5.837
 C   16.945  30.292   4.886
 O   15.843  30.678   5.237
 C   17.047  28.642   6.811
 C   16.316  27.513   6.146
 O   16.236  27.458   4.905
 O   15.762  26.696   6.882
 N   17.407  27.054  -1.437
 C   17.227  26.751  -0.026
 C   18.555  26.446   0.653
 O   19.003  25.309   0.692
 C   16.258  25.572   0.084
 C   15.759  25.336   1.493
 O   16.399  25.780   2.453
 O   14.731  24.675   1.645
 N   19.106  26.199   3.688
 C   18.957  25.372   4.876
 C   18.845  23.903   4.520
 O   18.660  23.054   5.417
 H   18.180  30.990   7.295
 H   18.510  28.835   5.249
 H   16.336  29.276   7.377
 H   17.778  28.186   7.516
 H   15.845  26.702   7.843
 H   17.860  26.421  -2.023
 H   16.724  27.595   0.500
 H   16.724  24.663  -0.337
 H   15.363  25.845  -0.519
 H   16.737  25.171   3.109
 H   18.314  26.771   3.377
 H   18.015  25.631   5.391
 H   19.792  25.567   5.577
 H   19.646  30.419   6.619
 H   17.295  30.415   3.850
 H   16.947  27.858  -1.864
 H   19.060  27.284   1.155
 H   20.034  26.347   3.290
 H   18.824  23.654   3.449
}

set {
basis cc-pvtz
scf_type df
guess sad
DF_SCF_TYPE DFJK
}

energy('HF')
--------------------------------------------------------------------------

  Memory set to  55.879 GiB by Python driver.

*** tstart() called on hex15
*** at Thu Mar  1 17:07:59 2018

   => Loading Basis Set <=

    Name: CC-PVTZ
    Role: ORBITAL
    Keyword: BASIS
    atoms 1, 9, 17                      entry N          line   224 file /theoryfs2/ds/schieber/Gits/mspsi4/objdir3/stage/usr/local/psi4/share/psi4/basis/cc-pvtz.gbs 
    atoms 2-3, 5-6, 10-11, 13-14, 18-19 entry C          line   186 file /theoryfs2/ds/schieber/Gits/mspsi4/objdir3/stage/usr/local/psi4/share/psi4/basis/cc-pvtz.gbs 
    atoms 4, 7-8, 12, 15-16, 20         entry O          line   262 file /theoryfs2/ds/schieber/Gits/mspsi4/objdir3/stage/usr/local/psi4/share/psi4/basis/cc-pvtz.gbs 
    atoms 21-39                         entry H          line    23 file /theoryfs2/ds/schieber/Gits/mspsi4/objdir3/stage/usr/local/psi4/share/psi4/basis/cc-pvtz.gbs 


         ---------------------------------------------------------
                                   SCF
            by Justin Turney, Rob Parrish, Andy Simmonett
                             and Daniel Smith
                              RHF Reference
                        6 Threads,  57220 MiB Core
         ---------------------------------------------------------

  ==> Geometry <==

    Molecular point group: c1
    Full point group: C1

    Geometry (in Angstrom), charge = 0, multiplicity = 1:

       Center              X                  Y                   Z               Mass       
    ------------   -----------------  -----------------  -----------------  -----------------
           N          1.351848201903     3.618071616974     3.042782948432    14.003074004780
           C          0.578848201903     2.690071616974     2.252782948432    12.000000000000
           C         -0.329151798097     3.466071616974     1.301782948432    12.000000000000
           O         -1.431151798097     3.852071616974     1.652782948432    15.994914619560
           C         -0.227151798097     1.816071616974     3.226782948432    12.000000000000
           C         -0.958151798097     0.687071616974     2.561782948432    12.000000000000
           O         -1.038151798097     0.632071616974     1.320782948432    15.994914619560
           O         -1.512151798097    -0.129928383026     3.297782948432    15.994914619560
           N          0.132848201903     0.228071616974    -5.021217051568    14.003074004780
           C         -0.047151798097    -0.074928383026    -3.610217051568    12.000000000000
           C          1.280848201903    -0.379928383026    -2.931217051568    12.000000000000
           O          1.728848201903    -1.516928383026    -2.892217051568    15.994914619560
           C         -1.016151798097    -1.253928383026    -3.500217051568    12.000000000000
           C         -1.515151798097    -1.489928383026    -2.091217051568    12.000000000000
           O         -0.875151798097    -1.045928383026    -1.131217051568    15.994914619560
           O         -2.543151798097    -2.150928383026    -1.939217051568    15.994914619560
           N          1.831848201903    -0.626928383026     0.103782948432    14.003074004780
           C          1.682848201903    -1.453928383026     1.291782948432    12.000000000000
           C          1.570848201903    -2.922928383026     0.935782948432    12.000000000000
           O          1.385848201903    -3.771928383026     1.832782948432    15.994914619560
           H          0.905848201903     4.164071616974     3.710782948432     1.007825032070
           H          1.235848201903     2.009071616974     1.664782948432     1.007825032070
           H         -0.938151798097     2.450071616974     3.792782948432     1.007825032070
           H          0.503848201903     1.360071616974     3.931782948432     1.007825032070
           H         -1.429151798097    -0.123928383026     4.258782948432     1.007825032070
           H          0.585848201903    -0.404928383026    -5.607217051568     1.007825032070
           H         -0.550151798097     0.769071616974    -3.084217051568     1.007825032070
           H         -0.550151798097    -2.162928383026    -3.921217051568     1.007825032070
           H         -1.911151798097    -0.980928383026    -4.103217051568     1.007825032070
           H         -0.537151798097    -1.654928383026    -0.475217051568     1.007825032070
           H          1.039848201903    -0.054928383026    -0.207217051568     1.007825032070
           H          0.740848201903    -1.194928383026     1.806782948432     1.007825032070
           H          2.517848201903    -1.258928383026     1.992782948432     1.007825032070
           H          2.371848201903     3.593071616974     3.034782948432     1.007825032070
           H          0.020848201903     3.589071616974     0.265782948432     1.007825032070
           H         -0.327151798097     1.032071616974    -5.448217051568     1.007825032070
           H          1.785848201903     0.458071616974    -2.429217051568     1.007825032070
           H          2.759848201903    -0.478928383026    -0.294217051568     1.007825032070
           H          1.549848201903    -3.171928383026    -0.135217051568     1.007825032070

  Running in c1 symmetry.

  Rotational constants: A =      0.01135  B =      0.00596  C =      0.00509 [cm^-1]
  Rotational constants: A =    340.34658  B =    178.57705  C =    152.51078 [MHz]
  Nuclear repulsion = 1638.269612368452044

  Charge       = 0
  Multiplicity = 1
  Electrons    = 156
  Nalpha       = 78
  Nbeta        = 78

  ==> Algorithm <==

  SCF Algorithm Type is DF.
  DIIS enabled.
  MOM disabled.
  Fractional occupation disabled.
  Guess Type is SAD.
  Energy threshold   = 1.00e-06
  Density threshold  = 1.00e-06
  Integral threshold = 0.00e+00

  ==> Primary Basis <==

  Basis Set: CC-PVTZ
    Blend: CC-PVTZ
    Number of shells: 314
    Number of basis function: 866
    Number of Cartesian functions: 985
    Spherical Harmonics?: true
    Max angular momentum: 3

   => Loading Basis Set <=

    Name: (CC-PVTZ AUX)
    Role: JKFIT
    Keyword: DF_BASIS_SCF
    atoms 1, 9, 17                      entry N          line   177 file /theoryfs2/ds/schieber/Gits/mspsi4/objdir3/stage/usr/local/psi4/share/psi4/basis/cc-pvtz-jkfit.gbs 
    atoms 2-3, 5-6, 10-11, 13-14, 18-19 entry C          line   125 file /theoryfs2/ds/schieber/Gits/mspsi4/objdir3/stage/usr/local/psi4/share/psi4/basis/cc-pvtz-jkfit.gbs 
    atoms 4, 7-8, 12, 15-16, 20         entry O          line   229 file /theoryfs2/ds/schieber/Gits/mspsi4/objdir3/stage/usr/local/psi4/share/psi4/basis/cc-pvtz-jkfit.gbs 
    atoms 21-39                         entry H          line    51 file /theoryfs2/ds/schieber/Gits/mspsi4/objdir3/stage/usr/local/psi4/share/psi4/basis/cc-pvtz-jkfit.gbs 

  ==> Pre-Iterations <==

   -------------------------------------------------------
    Irrep   Nso     Nmo     Nalpha   Nbeta   Ndocc  Nsocc
   -------------------------------------------------------
     A        866     866       0       0       0       0
   -------------------------------------------------------
    Total     866     866      78      78      78       0
   -------------------------------------------------------

  ==> Integral Setup <==

  ==> DFJK: Density-Fitted J/K Matrices <==

    J tasked:                  Yes
    K tasked:                  Yes
    wK tasked:                  No
    OpenMP threads:              6
    Integrals threads:           6
    Memory (MB):             42915
    Algorithm:                Core
    Integral Cache:           NONE
    Schwarz Cutoff:          1E-12
    Fitting Condition:       1E-12

   => Auxiliary Basis Set <=

  Basis Set: (CC-PVTZ AUX)
    Blend: CC-PVTZ-JKFIT
    Number of shells: 690
    Number of basis function: 2150
    Number of Cartesian functions: 2585
    Spherical Harmonics?: true
    Max angular momentum: 4

  Minimum eigenvalue in the overlap matrix is 2.4896324268E-04.
  Using Symmetric Orthogonalization.

  SCF Guess: Superposition of Atomic Densities via on-the-fly atomic UHF.

  ==> Iterations <==

                           Total Energy        Delta E     RMS |[F,P]|

   @DF-RHF iter   0: -1084.49820575131798   -1.08450e+03   2.37614e-02 
   @DF-RHF iter   1: -1076.71728197547122    7.78092e+00   3.15902e-03 
   @DF-RHF iter   2: -1077.17793376821032   -4.60652e-01   2.19300e-03 DIIS
   @DF-RHF iter   3: -1077.39172277538273   -2.13789e-01   4.84336e-04 DIIS
   @DF-RHF iter   4: -1077.41363739392477   -2.19146e-02   1.59209e-04 DIIS
   @DF-RHF iter   5: -1077.41675596323898   -3.11857e-03   6.70666e-05 DIIS
   @DF-RHF iter   6: -1077.41755641190298   -8.00449e-04   3.31329e-05 DIIS
   @DF-RHF iter   7: -1077.41784284748974   -2.86436e-04   1.64629e-05 DIIS
   @DF-RHF iter   8: -1077.41791724670134   -7.43992e-05   7.76307e-06 DIIS
   @DF-RHF iter   9: -1077.41793739096511   -2.01443e-05   3.12346e-06 DIIS
   @DF-RHF iter  10: -1077.41794049342911   -3.10246e-06   1.34766e-06 DIIS
   @DF-RHF iter  11: -1077.41794103880147   -5.45372e-07   5.12667e-07 DIIS

  ==> Post-Iterations <==

    Orbital Energies (a.u.)
    -----------------------

    Doubly Occupied:                                                      

       1A    -20.644782     2A    -20.601641     3A    -20.566724  
       4A    -20.560110     5A    -20.557614     6A    -20.539355  
       7A    -20.512286     8A    -15.556641     9A    -15.549132  
      10A    -15.548568    11A    -11.396481    12A    -11.363608  
      13A    -11.343089    14A    -11.337458    15A    -11.334848  
      16A    -11.296949    17A    -11.289173    18A    -11.282560  
      19A    -11.265176    20A    -11.236876    21A     -1.528043  
      22A     -1.497378    23A     -1.395890    24A     -1.391660  
      25A     -1.367649    26A     -1.357166    27A     -1.330141  
      28A     -1.213534    29A     -1.200291    30A     -1.185749  
      31A     -1.055854    32A     -1.041751    33A     -0.965178  
      34A     -0.950050    35A     -0.935683    36A     -0.906570  
      37A     -0.873305    38A     -0.809395    39A     -0.802856  
      40A     -0.794034    41A     -0.747658    42A     -0.730197  
      43A     -0.718681    44A     -0.705692    45A     -0.694004  
      46A     -0.692047    47A     -0.687700    48A     -0.685049  
      49A     -0.665467    50A     -0.660381    51A     -0.658631  
      52A     -0.651750    53A     -0.642943    54A     -0.631057  
      55A     -0.629768    56A     -0.627644    57A     -0.620668  
      58A     -0.590245    59A     -0.578091    60A     -0.573739  
      61A     -0.562433    62A     -0.557001    63A     -0.531800  
      64A     -0.528663    65A     -0.519345    66A     -0.515057  
      67A     -0.504226    68A     -0.488137    69A     -0.473830  
      70A     -0.461853    71A     -0.454589    72A     -0.446485  
      73A     -0.444343    74A     -0.443168    75A     -0.432940  
      76A     -0.386498    77A     -0.382187    78A     -0.376130  

    Virtual:                                                              

      79A      0.098083    80A      0.102277    81A      0.109491  
      82A      0.112123    83A      0.113969    84A      0.140821  
      85A      0.148776    86A      0.152213    87A      0.156077  
      88A      0.158635    89A      0.168125    90A      0.172767  
      91A      0.178614    92A      0.185823    93A      0.195280  
      94A      0.202360    95A      0.212291    96A      0.218183  
      97A      0.226050    98A      0.231348    99A      0.234800  
     100A      0.252153   101A      0.276020   102A      0.280675  
     103A      0.288927   104A      0.307965   105A      0.314902  
     106A      0.326054   107A      0.340978   108A      0.347322  
     109A      0.352535   110A      0.358044   111A      0.368148  
     112A      0.373845   113A      0.383311   114A      0.387615  
     115A      0.401849   116A      0.405940   117A      0.406526  
     118A      0.419557   119A      0.430756   120A      0.440521  
     121A      0.448462   122A      0.454289   123A      0.461294  
     124A      0.464064   125A      0.464283   126A      0.480279  
     127A      0.482370   128A      0.495136   129A      0.500609  
     130A      0.506986   131A      0.514647   132A      0.520706  
     133A      0.524009   134A      0.533499   135A      0.541073  
     136A      0.549716   137A      0.555713   138A      0.561228  
     139A      0.564788   140A      0.569470   141A      0.579570  
     142A      0.582206   143A      0.585726   144A      0.587792  
     145A      0.593645   146A      0.600583   147A      0.601766  
     148A      0.608842   149A      0.617891   150A      0.624977  
     151A      0.627818   152A      0.627941   153A      0.633788  
     154A      0.642403   155A      0.646395   156A      0.649524  
     157A      0.655996   158A      0.657671   159A      0.660461  
     160A      0.670060   161A      0.670637   162A      0.679675  
     163A      0.683060   164A      0.687548   165A      0.689961  
     166A      0.696202   167A      0.703294   168A      0.708916  
     169A      0.711002   170A      0.719084   171A      0.723263  
     172A      0.728492   173A      0.733396   174A      0.738662  
     175A      0.740893   176A      0.742576   177A      0.747572  
     178A      0.761567   179A      0.770347   180A      0.775321  
     181A      0.783517   182A      0.787058   183A      0.788904  
     184A      0.795782   185A      0.803990   186A      0.808239  
     187A      0.826453   188A      0.835000   189A      0.843519  
     190A      0.850763   191A      0.861012   192A      0.867189  
     193A      0.873520   194A      0.881138   195A      0.891486  
     196A      0.895704   197A      0.905119   198A      0.910732  
     199A      0.911082   200A      0.925277   201A      0.935411  
     202A      0.937636   203A      0.939394   204A      0.942895  
     205A      0.946412   206A      0.956626   207A      0.962595  
     208A      0.965905   209A      0.978730   210A      0.984018  
     211A      0.996803   212A      1.003048   213A      1.016190  
     214A      1.024282   215A      1.029779   216A      1.032469  
     217A      1.049932   218A      1.058136   219A      1.059754  
     220A      1.064230   221A      1.083118   222A      1.083779  
     223A      1.099486   224A      1.107629   225A      1.115057  
     226A      1.123367   227A      1.124403   228A      1.131856  
     229A      1.142301   230A      1.146343   231A      1.151304  
     232A      1.169899   233A      1.183264   234A      1.188729  
     235A      1.193986   236A      1.198247   237A      1.203281  
     238A      1.205007   239A      1.208874   240A      1.214883  
     241A      1.222320   242A      1.230476   243A      1.243752  
     244A      1.252909   245A      1.255066   246A      1.261815  
     247A      1.267522   248A      1.278940   249A      1.281104  
     250A      1.293001   251A      1.296145   252A      1.307532  
     253A      1.309652   254A      1.313664   255A      1.327056  
     256A      1.331317   257A      1.342299   258A      1.343440  
     259A      1.350860   260A      1.354599   261A      1.366198  
     262A      1.370820   263A      1.377065   264A      1.386146  
     265A      1.389666   266A      1.395264   267A      1.396838  
     268A      1.412350   269A      1.416782   270A      1.427003  
     271A      1.430174   272A      1.440545   273A      1.450706  
     274A      1.458119   275A      1.469986   276A      1.479138  
     277A      1.484754   278A      1.486549   279A      1.493975  
     280A      1.498606   281A      1.513782   282A      1.520618  
     283A      1.524799   284A      1.530443   285A      1.548349  
     286A      1.552060   287A      1.560460   288A      1.569622  
     289A      1.580633   290A      1.585774   291A      1.593589  
     292A      1.596006   293A      1.604775   294A      1.612515  
     295A      1.618674   296A      1.627212   297A      1.631010  
     298A      1.635426   299A      1.644885   300A      1.649426  
     301A      1.658292   302A      1.666791   303A      1.668717  
     304A      1.674180   305A      1.684954   306A      1.687198  
     307A      1.707887   308A      1.708595   309A      1.727031  
     310A      1.739746   311A      1.752646   312A      1.758074  
     313A      1.766843   314A      1.779488   315A      1.786223  
     316A      1.791656   317A      1.805070   318A      1.821385  
     319A      1.831565   320A      1.853213   321A      1.861097  
     322A      1.891062   323A      1.906778   324A      1.920552  
     325A      1.925238   326A      1.929202   327A      1.935209  
     328A      1.945065   329A      1.949351   330A      1.952235  
     331A      1.961045   332A      1.970398   333A      1.989319  
     334A      1.995492   335A      2.004570   336A      2.010086  
     337A      2.017261   338A      2.021938   339A      2.035461  
     340A      2.055722   341A      2.062248   342A      2.066224  
     343A      2.078151   344A      2.096384   345A      2.102076  
     346A      2.113173   347A      2.131066   348A      2.145750  
     349A      2.154026   350A      2.172611   351A      2.222485  
     352A      2.258385   353A      2.267663   354A      2.276828  
     355A      2.293505   356A      2.318640   357A      2.337381  
     358A      2.353189   359A      2.362502   360A      2.376757  
     361A      2.386332   362A      2.390243   363A      2.398470  
     364A      2.407591   365A      2.426174   366A      2.431842  
     367A      2.457854   368A      2.463732   369A      2.466840  
     370A      2.476143   371A      2.495712   372A      2.500325  
     373A      2.514066   374A      2.539803   375A      2.542189  
     376A      2.552642   377A      2.565389   378A      2.585693  
     379A      2.606762   380A      2.635055   381A      2.643675  
     382A      2.658445   383A      2.661647   384A      2.696272  
     385A      2.711088   386A      2.728592   387A      2.739598  
     388A      2.761308   389A      2.763670   390A      2.767202  
     391A      2.777036   392A      2.782513   393A      2.792771  
     394A      2.813993   395A      2.821819   396A      2.835104  
     397A      2.846228   398A      2.850193   399A      2.859137  
     400A      2.864084   401A      2.871556   402A      2.890786  
     403A      2.897517   404A      2.917389   405A      2.922072  
     406A      2.929186   407A      2.936826   408A      2.945265  
     409A      2.954143   410A      2.956512   411A      2.972303  
     412A      2.976765   413A      2.986555   414A      2.995699  
     415A      3.003369   416A      3.011117   417A      3.016600  
     418A      3.022507   419A      3.033568   420A      3.047375  
     421A      3.065741   422A      3.069528   423A      3.074192  
     424A      3.077677   425A      3.084975   426A      3.112875  
     427A      3.128097   428A      3.135754   429A      3.145074  
     430A      3.158602   431A      3.168345   432A      3.171008  
     433A      3.177772   434A      3.189788   435A      3.197963  
     436A      3.201493   437A      3.208683   438A      3.215493  
     439A      3.221122   440A      3.241887   441A      3.246911  
     442A      3.254498   443A      3.260152   444A      3.264348  
     445A      3.275564   446A      3.282726   447A      3.286693  
     448A      3.293008   449A      3.293410   450A      3.301435  
     451A      3.309325   452A      3.319536   453A      3.320760  
     454A      3.322922   455A      3.334131   456A      3.346230  
     457A      3.349168   458A      3.356401   459A      3.365134  
     460A      3.372695   461A      3.381238   462A      3.387306  
     463A      3.387873   464A      3.397615   465A      3.405620  
     466A      3.413928   467A      3.420244   468A      3.424827  
     469A      3.428669   470A      3.439650   471A      3.441662  
     472A      3.446901   473A      3.455088   474A      3.461260  
     475A      3.461711   476A      3.466656   477A      3.474774  
     478A      3.479014   479A      3.490757   480A      3.495456  
     481A      3.496871   482A      3.502096   483A      3.508341  
     484A      3.511934   485A      3.522204   486A      3.523323  
     487A      3.527501   488A      3.535040   489A      3.546227  
     490A      3.553638   491A      3.555162   492A      3.565066  
     493A      3.570800   494A      3.587230   495A      3.589625  
     496A      3.600504   497A      3.608474   498A      3.613585  
     499A      3.622262   500A      3.633659   501A      3.637283  
     502A      3.648556   503A      3.654523   504A      3.663091  
     505A      3.667655   506A      3.682189   507A      3.686516  
     508A      3.690233   509A      3.703945   510A      3.708113  
     511A      3.714382   512A      3.719967   513A      3.731046  
     514A      3.736257   515A      3.745297   516A      3.747247  
     517A      3.752418   518A      3.766468   519A      3.769981  
     520A      3.775049   521A      3.793886   522A      3.797381  
     523A      3.802724   524A      3.822598   525A      3.827583  
     526A      3.834238   527A      3.841241   528A      3.843950  
     529A      3.847418   530A      3.851265   531A      3.857013  
     532A      3.865091   533A      3.875366   534A      3.883875  
     535A      3.887886   536A      3.907844   537A      3.913867  
     538A      3.918718   539A      3.921484   540A      3.931393  
     541A      3.938321   542A      3.950106   543A      3.957644  
     544A      3.964865   545A      3.970890   546A      3.980602  
     547A      3.983325   548A      3.992760   549A      3.996781  
     550A      4.010183   551A      4.011084   552A      4.021942  
     553A      4.026716   554A      4.035978   555A      4.047281  
     556A      4.048520   557A      4.053225   558A      4.064770  
     559A      4.076169   560A      4.084003   561A      4.088269  
     562A      4.109047   563A      4.117201   564A      4.124679  
     565A      4.132473   566A      4.137871   567A      4.155354  
     568A      4.161705   569A      4.165384   570A      4.167166  
     571A      4.169633   572A      4.172135   573A      4.180266  
     574A      4.196770   575A      4.199646   576A      4.204773  
     577A      4.211329   578A      4.221730   579A      4.230362  
     580A      4.242049   581A      4.256629   582A      4.263266  
     583A      4.268803   584A      4.273114   585A      4.279399  
     586A      4.284233   587A      4.292842   588A      4.301130  
     589A      4.309753   590A      4.313597   591A      4.322060  
     592A      4.323206   593A      4.330462   594A      4.334795  
     595A      4.343997   596A      4.351874   597A      4.360812  
     598A      4.368869   599A      4.376294   600A      4.382244  
     601A      4.386388   602A      4.395730   603A      4.409470  
     604A      4.423299   605A      4.426168   606A      4.430743  
     607A      4.438308   608A      4.446870   609A      4.450579  
     610A      4.453606   611A      4.469343   612A      4.471779  
     613A      4.475381   614A      4.488861   615A      4.494800  
     616A      4.500454   617A      4.510827   618A      4.520890  
     619A      4.525494   620A      4.538481   621A      4.549121  
     622A      4.555462   623A      4.567768   624A      4.572062  
     625A      4.575129   626A      4.585270   627A      4.588604  
     628A      4.597790   629A      4.605212   630A      4.611572  
     631A      4.615966   632A      4.629480   633A      4.633375  
     634A      4.641485   635A      4.658373   636A      4.663760  
     637A      4.672167   638A      4.677763   639A      4.682875  
     640A      4.696025   641A      4.708314   642A      4.719960  
     643A      4.723461   644A      4.736380   645A      4.742016  
     646A      4.753511   647A      4.763633   648A      4.774794  
     649A      4.775289   650A      4.790619   651A      4.802594  
     652A      4.809581   653A      4.811602   654A      4.823626  
     655A      4.858093   656A      4.874666   657A      4.878382  
     658A      4.881667   659A      4.883604   660A      4.908345  
     661A      4.919686   662A      4.926922   663A      4.931350  
     664A      4.952404   665A      4.977607   666A      5.001466  
     667A      5.007965   668A      5.029145   669A      5.047492  
     670A      5.051311   671A      5.061546   672A      5.082172  
     673A      5.091255   674A      5.104479   675A      5.112949  
     676A      5.122418   677A      5.130671   678A      5.148846  
     679A      5.150327   680A      5.161328   681A      5.171395  
     682A      5.188365   683A      5.193091   684A      5.230040  
     685A      5.232071   686A      5.235744   687A      5.245523  
     688A      5.253384   689A      5.260275   690A      5.266710  
     691A      5.280653   692A      5.300320   693A      5.306143  
     694A      5.310676   695A      5.324962   696A      5.328887  
     697A      5.337090   698A      5.345756   699A      5.353242  
     700A      5.363962   701A      5.381182   702A      5.405154  
     703A      5.416763   704A      5.442016   705A      5.452600  
     706A      5.465400   707A      5.466461   708A      5.497473  
     709A      5.513694   710A      5.518379   711A      5.530036  
     712A      5.538204   713A      5.546316   714A      5.549947  
     715A      5.594416   716A      5.606543   717A      5.611503  
     718A      5.630619   719A      5.642112   720A      5.647649  
     721A      5.655015   722A      5.662889   723A      5.667650  
     724A      5.672302   725A      5.679468   726A      5.683744  
     727A      5.684959   728A      5.687083   729A      5.697863  
     730A      5.700881   731A      5.729048   732A      5.737549  
     733A      5.761586   734A      5.765320   735A      5.769802  
     736A      5.793942   737A      5.810610   738A      5.840713  
     739A      5.846405   740A      5.857952   741A      5.878185  
     742A      5.883493   743A      5.898388   744A      5.949204  
     745A      5.990647   746A      5.997911   747A      6.011720  
     748A      6.016940   749A      6.026372   750A      6.029606  
     751A      6.037778   752A      6.062627   753A      6.066238  
     754A      6.071167   755A      6.093385   756A      6.096464  
     757A      6.101037   758A      6.111889   759A      6.133160  
     760A      6.138852   761A      6.161257   762A      6.172579  
     763A      6.183319   764A      6.196812   765A      6.198429  
     766A      6.214554   767A      6.220655   768A      6.234554  
     769A      6.235246   770A      6.259839   771A      6.285466  
     772A      6.302870   773A      6.345935   774A      6.358061  
     775A      6.415992   776A      6.456968   777A      6.484247  
     778A      6.493890   779A      6.562707   780A      6.577184  
     781A      6.620654   782A      6.625183   783A      6.631866  
     784A      6.644361   785A      6.656077   786A      6.691550  
     787A      6.708002   788A      6.710546   789A      6.713747  
     790A      6.727037   791A      6.758708   792A      6.766301  
     793A      6.781150   794A      6.792759   795A      6.827050  
     796A      6.837158   797A      6.842308   798A      6.897198  
     799A      6.918215   800A      6.923500   801A      6.931005  
     802A      6.939992   803A      6.950578   804A      6.956281  
     805A      6.973911   806A      6.983029   807A      7.001798  
     808A      7.018115   809A      7.029988   810A      7.044463  
     811A      7.058279   812A      7.080934   813A      7.152816  
     814A      7.192074   815A      7.226072   816A      7.237608  
     817A      7.241028   818A      7.252048   819A      7.272210  
     820A      7.298510   821A      7.338764   822A      7.344750  
     823A      7.354235   824A      7.357763   825A      7.364960  
     826A      7.390992   827A      7.397624   828A      7.407211  
     829A      7.417697   830A      7.469404   831A      7.497599  
     832A      7.521969   833A      7.529216   834A      7.533138  
     835A      7.555610   836A      7.559906   837A      7.585883  
     838A      7.602398   839A      7.647773   840A      7.691481  
     841A      7.755302   842A      7.779481   843A      7.850996  
     844A      7.884776   845A      8.148066   846A      8.170587  
     847A     10.213960   848A     10.348252   849A     10.551225  
     850A     10.646629   851A     10.782958   852A     12.139677  
     853A     12.171452   854A     12.635697   855A     13.013910  
     856A     13.104885   857A     13.138015   858A     13.435095  
     859A     13.580436   860A     13.717183   861A     13.752814  
     862A     14.054508   863A     14.230726   864A     14.298676  
     865A     14.698022   866A     14.880559  

    Final Occupation by Irrep:
              A 
    DOCC [    78 ]

  Energy converged.

  @DF-RHF Final Energy: -1077.41794103880147

   => Energetics <=

    Nuclear Repulsion Energy =           1638.2696123684520444
    One-Electron Energy =               -4735.2043140533933183
    Two-Electron Energy =                2019.5167606461400283
    Total Energy =                      -1077.4179410388014730



Properties will be evaluated at   0.000000,   0.000000,   0.000000 Bohr

Properties computed using the SCF density matrix

  Nuclear Dipole Moment: (a.u.)
     X:     9.1337      Y:     7.4118      Z:    -1.1525

  Electronic Dipole Moment: (a.u.)
     X:    -6.9303      Y:    -5.0695      Z:     2.0863

  Dipole Moment: (a.u.)
     X:     2.2033      Y:     2.3424      Z:     0.9338     Total:     3.3486

  Dipole Moment: (Debye)
     X:     5.6003      Y:     5.9537      Z:     2.3736     Total:     8.5114


*** tstop() called on hex15 at Thu Mar  1 17:10:55 2018
Module time:
	user time   =     486.62 seconds =       8.11 minutes
	system time =       4.03 seconds =       0.07 minutes
	total time  =        176 seconds =       2.93 minutes
Total time:
	user time   =     486.62 seconds =       8.11 minutes
	system time =       4.03 seconds =       0.07 minutes
	total time  =        176 seconds =       2.93 minutes

*** Psi4 exiting successfully. Buy a developer a beer!
