
    -----------------------------------------------------------------------
          Psi4: An Open-Source Ab Initio Electronic Structure Package
                               Psi4 1.2a1.dev875 

                         Git: Rev {symm_JK} 0ea9481 dirty


    R. M. Parrish, L. A. Burns, D. G. A. Smith, A. C. Simmonett,
    A. E. DePrince III, E. G. Hohenstein, U. Bozkaya, A. Yu. Sokolov,
    R. Di Remigio, R. M. Richard, J. F. Gonthier, A. M. James,
    H. R. McAlexander, A. Kumar, M. Saitow, X. Wang, B. P. Pritchard,
    P. Verma, H. F. Schaefer III, K. Patkowski, R. A. King, E. F. Valeev,
    F. A. Evangelista, J. M. Turney, T. D. Crawford, and C. D. Sherrill,
    J. Chem. Theory Comput. 13(7) pp 3185--3197 (2017).
    (doi: 10.1021/acs.jctc.7b00174)

    -----------------------------------------------------------------------


    Psi4 started on: Thursday, 01 March 2018 05:04PM

    Process ID:  28037
    PSIDATADIR: /theoryfs2/ds/schieber/Gits/mspsi4/objdir3/stage/usr/local/psi4/share/psi4
    Memory:     500.0 MiB
    Threads:    6
    
  ==> Input File <==

--------------------------------------------------------------------------
memory 60 Gb

molecule protein_30 {
0 1
 N   18.626  30.444   6.627
 C   17.853  29.516   5.837
 C   16.945  30.292   4.886
 O   15.843  30.678   5.237
 C   17.047  28.642   6.811
 C   16.316  27.513   6.146
 O   16.236  27.458   4.905
 O   15.762  26.696   6.882
 N   17.407  27.054  -1.437
 C   17.227  26.751  -0.026
 C   18.555  26.446   0.653
 O   19.003  25.309   0.692
 C   16.258  25.572   0.084
 C   15.759  25.336   1.493
 O   16.399  25.780   2.453
 O   14.731  24.675   1.645
 H   18.180  30.990   7.295
 H   18.510  28.835   5.249
 H   16.336  29.276   7.377
 H   17.778  28.186   7.516
 H   15.845  26.702   7.843
 H   17.860  26.421  -2.023
 H   16.724  27.595   0.500
 H   16.724  24.663  -0.337
 H   15.363  25.845  -0.519
 H   16.737  25.171   3.109
 H   19.646  30.419   6.619
 H   17.295  30.415   3.850
 H   16.947  27.858  -1.864
 H   19.060  27.284   1.155
}

set {
basis cc-pvdz
scf_type df
guess sad
DF_SCF_TYPE SYMM_JK
}

energy('HF')
--------------------------------------------------------------------------

  Memory set to  55.879 GiB by Python driver.

*** tstart() called on hex15
*** at Thu Mar  1 17:04:43 2018

   => Loading Basis Set <=

    Name: CC-PVDZ
    Role: ORBITAL
    Keyword: BASIS
    atoms 1, 9                   entry N          line   168 file /theoryfs2/ds/schieber/Gits/mspsi4/objdir3/stage/usr/local/psi4/share/psi4/basis/cc-pvdz.gbs 
    atoms 2-3, 5-6, 10-11, 13-14 entry C          line   138 file /theoryfs2/ds/schieber/Gits/mspsi4/objdir3/stage/usr/local/psi4/share/psi4/basis/cc-pvdz.gbs 
    atoms 4, 7-8, 12, 15-16      entry O          line   198 file /theoryfs2/ds/schieber/Gits/mspsi4/objdir3/stage/usr/local/psi4/share/psi4/basis/cc-pvdz.gbs 
    atoms 17-30                  entry H          line    22 file /theoryfs2/ds/schieber/Gits/mspsi4/objdir3/stage/usr/local/psi4/share/psi4/basis/cc-pvdz.gbs 


         ---------------------------------------------------------
                                   SCF
            by Justin Turney, Rob Parrish, Andy Simmonett
                             and Daniel Smith
                              RHF Reference
                        6 Threads,  57220 MiB Core
         ---------------------------------------------------------

  ==> Geometry <==

    Molecular point group: c1
    Full point group: C1

    Geometry (in Angstrom), charge = 0, multiplicity = 1:

       Center              X                  Y                   Z               Mass       
    ------------   -----------------  -----------------  -----------------  -----------------
           N          1.759981620253     3.071942570653     3.302034477710    14.003074004780
           C          0.986981620253     2.143942570653     2.512034477710    12.000000000000
           C          0.078981620253     2.919942570653     1.561034477710    12.000000000000
           O         -1.023018379747     3.305942570653     1.912034477710    15.994914619560
           C          0.180981620253     1.269942570653     3.486034477710    12.000000000000
           C         -0.550018379747     0.140942570653     2.821034477710    12.000000000000
           O         -0.630018379747     0.085942570653     1.580034477710    15.994914619560
           O         -1.104018379747    -0.676057429347     3.557034477710    15.994914619560
           N          0.540981620253    -0.318057429347    -4.761965522290    14.003074004780
           C          0.360981620253    -0.621057429347    -3.350965522290    12.000000000000
           C          1.688981620253    -0.926057429347    -2.671965522290    12.000000000000
           O          2.136981620253    -2.063057429347    -2.632965522290    15.994914619560
           C         -0.608018379747    -1.800057429347    -3.240965522290    12.000000000000
           C         -1.107018379747    -2.036057429347    -1.831965522290    12.000000000000
           O         -0.467018379747    -1.592057429347    -0.871965522290    15.994914619560
           O         -2.135018379747    -2.697057429347    -1.679965522290    15.994914619560
           H          1.313981620253     3.617942570653     3.970034477710     1.007825032070
           H          1.643981620253     1.462942570653     1.924034477710     1.007825032070
           H         -0.530018379747     1.903942570653     4.052034477710     1.007825032070
           H          0.911981620253     0.813942570653     4.191034477710     1.007825032070
           H         -1.021018379747    -0.670057429347     4.518034477710     1.007825032070
           H          0.993981620253    -0.951057429347    -5.347965522290     1.007825032070
           H         -0.142018379747     0.222942570653    -2.824965522290     1.007825032070
           H         -0.142018379747    -2.709057429347    -3.661965522290     1.007825032070
           H         -1.503018379747    -1.527057429347    -3.843965522290     1.007825032070
           H         -0.129018379747    -2.201057429347    -0.215965522290     1.007825032070
           H          2.779981620253     3.046942570653     3.294034477710     1.007825032070
           H          0.428981620253     3.042942570653     0.525034477710     1.007825032070
           H          0.080981620253     0.485942570653    -5.188965522290     1.007825032070
           H          2.193981620253    -0.088057429347    -2.169965522290     1.007825032070

  Running in c1 symmetry.

  Rotational constants: A =      0.02246  B =      0.00667  C =      0.00592 [cm^-1]
  Rotational constants: A =    673.47508  B =    199.82875  C =    177.40117 [MHz]
  Nuclear repulsion = 1089.601628930780862

  Charge       = 0
  Multiplicity = 1
  Electrons    = 124
  Nalpha       = 62
  Nbeta        = 62

  ==> Algorithm <==

  SCF Algorithm Type is DF.
  DIIS enabled.
  MOM disabled.
  Fractional occupation disabled.
  Guess Type is SAD.
  Energy threshold   = 1.00e-06
  Density threshold  = 1.00e-06
  Integral threshold = 0.00e+00

  ==> Primary Basis <==

  Basis Set: CC-PVDZ
    Blend: CC-PVDZ
    Number of shells: 138
    Number of basis function: 294
    Number of Cartesian functions: 310
    Spherical Harmonics?: true
    Max angular momentum: 2

   => Loading Basis Set <=

    Name: (CC-PVDZ AUX)
    Role: JKFIT
    Keyword: DF_BASIS_SCF
    atoms 1, 9                   entry N          line   171 file /theoryfs2/ds/schieber/Gits/mspsi4/objdir3/stage/usr/local/psi4/share/psi4/basis/cc-pvdz-jkfit.gbs 
    atoms 2-3, 5-6, 10-11, 13-14 entry C          line   121 file /theoryfs2/ds/schieber/Gits/mspsi4/objdir3/stage/usr/local/psi4/share/psi4/basis/cc-pvdz-jkfit.gbs 
    atoms 4, 7-8, 12, 15-16      entry O          line   221 file /theoryfs2/ds/schieber/Gits/mspsi4/objdir3/stage/usr/local/psi4/share/psi4/basis/cc-pvdz-jkfit.gbs 
    atoms 17-30                  entry H          line    51 file /theoryfs2/ds/schieber/Gits/mspsi4/objdir3/stage/usr/local/psi4/share/psi4/basis/cc-pvdz-jkfit.gbs 

  ==> Pre-Iterations <==

   -------------------------------------------------------
    Irrep   Nso     Nmo     Nalpha   Nbeta   Ndocc  Nsocc
   -------------------------------------------------------
     A        294     294       0       0       0       0
   -------------------------------------------------------
    Total     294     294      62      62      62       0
   -------------------------------------------------------

  ==> Integral Setup <==


    ==> DF_Helper <==
      nao           = 294
      naux          = 1442
      Scwarz cutoff = 1.000000E-12
      mem (doubles) = 5625000000
      nthreads      = 6
      Algorithm     = STORE
      AO_core?      = 1
      MO_core?      = 0
      hold metric   = 0
      metric power  = -5.000000E-01
  Fitting condition = 1.000000E-12
  Mask sparsity (%) = (33.027905)


  Minimum eigenvalue in the overlap matrix is 2.0362321116E-03.
  Using Symmetric Orthogonalization.

  SCF Guess: Superposition of Atomic Densities via on-the-fly atomic UHF.

  ==> Iterations <==

                           Total Energy        Delta E     RMS |[F,P]|

   @DF-RHF iter   0:  -875.39661600297620   -8.75397e+02   6.28450e-02 
   @DF-RHF iter   1:  -868.61464198773376    6.78197e+00   8.05124e-03 
   @DF-RHF iter   2:  -868.97670409613374   -3.62062e-01   5.48993e-03 DIIS
   @DF-RHF iter   3:  -869.14355891425123   -1.66855e-01   1.17040e-03 DIIS
   @DF-RHF iter   4:  -869.16137659922435   -1.78177e-02   4.12178e-04 DIIS
   @DF-RHF iter   5:  -869.16419331015948   -2.81671e-03   1.78651e-04 DIIS
   @DF-RHF iter   6:  -869.16486805016382   -6.74740e-04   8.03145e-05 DIIS
   @DF-RHF iter   7:  -869.16503835119579   -1.70301e-04   3.50424e-05 DIIS
   @DF-RHF iter   8:  -869.16506648283928   -2.81316e-05   1.46131e-05 DIIS
   @DF-RHF iter   9:  -869.16507358827948   -7.10544e-06   6.51243e-06 DIIS
   @DF-RHF iter  10:  -869.16507527015028   -1.68187e-06   3.22524e-06 DIIS
   @DF-RHF iter  11:  -869.16507572615831   -4.56008e-07   1.12339e-06 DIIS
   @DF-RHF iter  12:  -869.16507577780055   -5.16422e-08   3.95786e-07 DIIS

  ==> Post-Iterations <==

    Orbital Energies (a.u.)
    -----------------------

    Doubly Occupied:                                                      

       1A    -20.636692     2A    -20.590983     3A    -20.562149  
       4A    -20.556860     5A    -20.531013     6A    -20.505280  
       7A    -15.554007     8A    -15.543121     9A    -11.391263  
      10A    -11.359328    11A    -11.338288    12A    -11.335362  
      13A    -11.292098    14A    -11.279936    15A    -11.261025  
      16A    -11.230777    17A     -1.519255    18A     -1.485444  
      19A     -1.388757    20A     -1.386197    21A     -1.345043  
      22A     -1.320590    23A     -1.206114    24A     -1.189978  
      25A     -1.048153    26A     -1.031750    27A     -0.942010  
      28A     -0.924511    29A     -0.897083    30A     -0.858475  
      31A     -0.794297    32A     -0.782431    33A     -0.738780  
      34A     -0.717982    35A     -0.708483    36A     -0.681848  
      37A     -0.679191    38A     -0.678522    39A     -0.672735  
      40A     -0.649640    41A     -0.649064    42A     -0.639280  
      43A     -0.632483    44A     -0.621429    45A     -0.615668  
      46A     -0.609061    47A     -0.565024    48A     -0.549672  
      49A     -0.546099    50A     -0.523844    51A     -0.517222  
      52A     -0.507306    53A     -0.504313    54A     -0.489849  
      55A     -0.457624    56A     -0.448205    57A     -0.440064  
      58A     -0.433342    59A     -0.431228    60A     -0.419708  
      61A     -0.375995    62A     -0.363282  

    Virtual:                                                              

      63A      0.138909    64A      0.139796    65A      0.145920  
      66A      0.159863    67A      0.173523    68A      0.176611  
      69A      0.190027    70A      0.200826    71A      0.214463  
      72A      0.218938    73A      0.225764    74A      0.236433  
      75A      0.240406    76A      0.249172    77A      0.271875  
      78A      0.279080    79A      0.288237    80A      0.298702  
      81A      0.353867    82A      0.368443    83A      0.418819  
      84A      0.422732    85A      0.428549    86A      0.432591  
      87A      0.433962    88A      0.444435    89A      0.453803  
      90A      0.473229    91A      0.483383    92A      0.517708  
      93A      0.565033    94A      0.601223    95A      0.628954  
      96A      0.647248    97A      0.647813    98A      0.670376  
      99A      0.693624   100A      0.700161   101A      0.702464  
     102A      0.716815   103A      0.724575   104A      0.736785  
     105A      0.747391   106A      0.753206   107A      0.762773  
     108A      0.764395   109A      0.771637   110A      0.793988  
     111A      0.796020   112A      0.809466   113A      0.813138  
     114A      0.830598   115A      0.842555   116A      0.852763  
     117A      0.860142   118A      0.866271   119A      0.867229  
     120A      0.874592   121A      0.878967   122A      0.884255  
     123A      0.890553   124A      0.894358   125A      0.897427  
     126A      0.902726   127A      0.908682   128A      0.923704  
     129A      0.949418   130A      0.972029   131A      0.981202  
     132A      0.989528   133A      1.005312   134A      1.011702  
     135A      1.028388   136A      1.035967   137A      1.059847  
     138A      1.080444   139A      1.085373   140A      1.093241  
     141A      1.102933   142A      1.106811   143A      1.120915  
     144A      1.136506   145A      1.142708   146A      1.193645  
     147A      1.230833   148A      1.255005   149A      1.260873  
     150A      1.289402   151A      1.293062   152A      1.301591  
     153A      1.308445   154A      1.319975   155A      1.322167  
     156A      1.342739   157A      1.353501   158A      1.361466  
     159A      1.368326   160A      1.377464   161A      1.396538  
     162A      1.404845   163A      1.417443   164A      1.426030  
     165A      1.433908   166A      1.444827   167A      1.451497  
     168A      1.493402   169A      1.510409   170A      1.517545  
     171A      1.524427   172A      1.551673   173A      1.580740  
     174A      1.590904   175A      1.604397   176A      1.628976  
     177A      1.634234   178A      1.638126   179A      1.652856  
     180A      1.673540   181A      1.682655   182A      1.701906  
     183A      1.724307   184A      1.728681   185A      1.739147  
     186A      1.785352   187A      1.786304   188A      1.799199  
     189A      1.806794   190A      1.820416   191A      1.832073  
     192A      1.869666   193A      1.880383   194A      1.894627  
     195A      1.909289   196A      1.913228   197A      1.927802  
     198A      1.937091   199A      1.947740   200A      1.950708  
     201A      1.960615   202A      1.967962   203A      1.974624  
     204A      1.992466   205A      2.001214   206A      2.007863  
     207A      2.028150   208A      2.036542   209A      2.058745  
     210A      2.061500   211A      2.062124   212A      2.089707  
     213A      2.095287   214A      2.100316   215A      2.116726  
     216A      2.133060   217A      2.136180   218A      2.147106  
     219A      2.154424   220A      2.186128   221A      2.187171  
     222A      2.192383   223A      2.210058   224A      2.222319  
     225A      2.246962   226A      2.254428   227A      2.303801  
     228A      2.307918   229A      2.353232   230A      2.363853  
     231A      2.381878   232A      2.430754   233A      2.441443  
     234A      2.452979   235A      2.473730   236A      2.489949  
     237A      2.520937   238A      2.531271   239A      2.547706  
     240A      2.550938   241A      2.601446   242A      2.610904  
     243A      2.613587   244A      2.643982   245A      2.652830  
     246A      2.658824   247A      2.697086   248A      2.707900  
     249A      2.730252   250A      2.747909   251A      2.770970  
     252A      2.792363   253A      2.807800   254A      2.821195  
     255A      2.854500   256A      2.861613   257A      2.882284  
     258A      2.895969   259A      2.969131   260A      2.984776  
     261A      3.025728   262A      3.047681   263A      3.073304  
     264A      3.080433   265A      3.088254   266A      3.097083  
     267A      3.114852   268A      3.149853   269A      3.163230  
     270A      3.235946   271A      3.299733   272A      3.300336  
     273A      3.404497   274A      3.421855   275A      3.425348  
     276A      3.435115   277A      3.474401   278A      3.477628  
     279A      3.501050   280A      3.515268   281A      3.551222  
     282A      3.573574   283A      3.656964   284A      3.741780  
     285A      3.747012   286A      3.808416   287A      3.842756  
     288A      3.852060   289A      3.856229   290A      3.861212  
     291A      3.888840   292A      3.959203   293A      4.153416  
     294A      4.247103  

    Final Occupation by Irrep:
              A 
    DOCC [    62 ]

  Energy converged.

  @DF-RHF Final Energy:  -869.16507577780055

   => Energetics <=

    Nuclear Repulsion Energy =           1089.6016289307808620
    One-Electron Energy =               -3357.6230492291765586
    Two-Electron Energy =                1398.8563445205952576
    Total Energy =                       -869.1650757778004390



Properties will be evaluated at   0.000000,   0.000000,   0.000000 Bohr

Properties computed using the SCF density matrix

  Nuclear Dipole Moment: (a.u.)
     X:     6.4283      Y:     6.0223      Z:    -0.7176

  Electronic Dipole Moment: (a.u.)
     X:    -4.3469      Y:    -4.8469      Z:     2.4942

  Dipole Moment: (a.u.)
     X:     2.0815      Y:     1.1754      Z:     1.7766     Total:     2.9783

  Dipole Moment: (Debye)
     X:     5.2905      Y:     2.9876      Z:     4.5156     Total:     7.5701


*** tstop() called on hex15 at Thu Mar  1 17:04:55 2018
Module time:
	user time   =      47.96 seconds =       0.80 minutes
	system time =       1.20 seconds =       0.02 minutes
	total time  =         12 seconds =       0.20 minutes
Total time:
	user time   =      47.96 seconds =       0.80 minutes
	system time =       1.20 seconds =       0.02 minutes
	total time  =         12 seconds =       0.20 minutes

*** Psi4 exiting successfully. Buy a developer a beer!
