
    -----------------------------------------------------------------------
          Psi4: An Open-Source Ab Initio Electronic Structure Package
                               Psi4 1.2a1.dev875 

                         Git: Rev {symm_JK} 0ea9481 dirty


    R. M. Parrish, L. A. Burns, D. G. A. Smith, A. C. Simmonett,
    A. E. DePrince III, E. G. Hohenstein, U. Bozkaya, A. Yu. Sokolov,
    R. Di Remigio, R. M. Richard, J. F. Gonthier, A. M. James,
    H. R. McAlexander, A. Kumar, M. Saitow, X. Wang, B. P. Pritchard,
    P. Verma, H. F. Schaefer III, K. Patkowski, R. A. King, E. F. Valeev,
    F. A. Evangelista, J. M. Turney, T. D. Crawford, and C. D. Sherrill,
    J. Chem. Theory Comput. 13(7) pp 3185--3197 (2017).
    (doi: 10.1021/acs.jctc.7b00174)

    -----------------------------------------------------------------------


    Psi4 started on: Sunday, 11 March 2018 01:37AM

    Process ID:  30962
    PSIDATADIR: /theoryfs2/ds/schieber/Gits/mspsi4/objdir3/stage/usr/local/psi4/share/psi4
    Memory:     500.0 MiB
    Threads:    6
    
  ==> Input File <==

--------------------------------------------------------------------------
memory 60 Gb

molecule protein_103 {
0 1
 N   18.626  30.444   6.627
 C   17.853  29.516   5.837
 C   16.945  30.292   4.886
 O   15.843  30.678   5.237
 C   17.047  28.642   6.811
 C   16.316  27.513   6.146
 O   16.236  27.458   4.905
 O   15.762  26.696   6.882
 N    4.567  24.042   8.795
 C    4.886  22.777   8.145
 C    6.265  22.720   7.521
 O    6.723  23.689   6.900
 N   17.407  27.054  -1.437
 C   17.227  26.751  -0.026
 C   18.555  26.446   0.653
 O   19.003  25.309   0.692
 C   16.258  25.572   0.084
 C   15.759  25.336   1.493
 O   16.399  25.780   2.453
 O   14.731  24.675   1.645
 N   19.106  26.199   3.688
 C   18.957  25.372   4.876
 C   18.845  23.903   4.520
 O   18.660  23.054   5.417
 N   20.536  20.559   2.918
 C   21.779  19.912   2.496
 C   21.693  19.374   1.107
 O   22.642  19.502   0.361
 C   22.169  18.827   3.447
 C   22.272  19.337   4.844
 O   22.714  20.482   5.029
 O   21.836  18.647   5.778
 N   20.524  18.868   0.719
 C   20.355  18.227  -0.584
 C   19.212  18.807  -1.371
 O   18.383  19.523  -0.846
 C   20.084  16.745  -0.413
 C   21.023  16.088   0.586
 O   22.233  15.970   0.265
 O   20.531  15.682   1.672
 N   15.750  18.102  -3.440
 C   14.628  17.162  -3.514
 C   13.618  17.726  -4.436
 O   13.169  18.861  -4.263
 C   13.781  17.005  -2.245
 C   13.297  15.592  -2.184
 C   14.518  17.455  -1.007
 N   13.583  16.896   8.239
 C   13.484  18.319   8.459
 C   12.647  18.565   9.672
 O   12.880  17.976  10.721
 H   18.180  30.990   7.295
 H   18.510  28.835   5.249
 H   16.336  29.276   7.377
 H   17.778  28.186   7.516
 H   15.845  26.702   7.843
 H    4.436  24.871   8.195
 H    4.744  21.930   8.802
 H    4.143  22.632   7.335
 H   17.860  26.421  -2.023
 H   16.724  27.595   0.500
 H   16.724  24.663  -0.337
 H   15.363  25.845  -0.519
 H   16.737  25.171   3.109
 H   18.314  26.771   3.377
 H   18.015  25.631   5.391
 H   19.792  25.567   5.577
 H   19.976  20.073   3.597
 H   22.602  20.664   2.537
 H   23.175  18.459   3.144
 H   21.465  17.966   3.392
 H   21.492  17.752   5.634
 H   19.735  18.818   1.381
 H   21.291  18.340  -1.170
 H   20.109  16.188  -1.374
 H   19.050  16.648  -0.012
 H   19.629  15.364   1.734
 H   15.541  19.065  -3.172
 H   15.011  16.180  -3.836
 H   12.886  17.674  -2.203
 H   14.115  14.872  -2.046
 H   12.706  15.323  -3.086
 H   12.624  15.478  -1.307
 H   15.405  16.799  -0.936
 H   13.886  17.316  -0.103
 H   14.813  18.522  -1.068
 H   12.728  16.393   8.153
 H   13.053  18.790   7.555
 H   14.480  18.781   8.624
 H   19.646  30.419   6.619
 H   17.295  30.415   3.850
 H    4.454  24.117   9.806
 H    6.887  21.864   7.822
 H   16.947  27.858  -1.864
 H   19.060  27.284   1.155
 H   20.034  26.347   3.290
 H   18.824  23.654   3.449
 H   20.197  21.395   2.443
 H   19.162  18.493  -2.424
 H   16.715  17.829  -3.624
 H   13.269  17.060  -5.239
 H   14.494  16.447   8.142
 H   11.982  19.438   9.599
}

set {
basis aug-cc-pvqz
scf_type df
guess sad
DF_SCF_TYPE SYMM_JK
}

energy('HF')
--------------------------------------------------------------------------

  Memory set to  55.879 GiB by Python driver.

*** tstart() called on hex15
*** at Sun Mar 11 01:37:27 2018

   => Loading Basis Set <=

    Name: AUG-CC-PVQZ
    Role: ORBITAL
    Keyword: BASIS
    atoms 1, 9, 13, 21, 25, 33, 41, 48                                                          entry N          line   359 file /theoryfs2/ds/schieber/Gits/mspsi4/objdir3/stage/usr/local/psi4/share/psi4/basis/aug-cc-pvqz.gbs 
    atoms 2-3, 5-6, 10-11, 14-15, 17-18, 22-23, 26-27, 29-30, 34-35, 37-38, 42-43, 45-47, 49-50 entry C          line   299 file /theoryfs2/ds/schieber/Gits/mspsi4/objdir3/stage/usr/local/psi4/share/psi4/basis/aug-cc-pvqz.gbs 
    atoms 4, 7-8, 12, 16, 19-20, 24, 28, 31-32, 36, 39-40, 44, 51                               entry O          line   419 file /theoryfs2/ds/schieber/Gits/mspsi4/objdir3/stage/usr/local/psi4/share/psi4/basis/aug-cc-pvqz.gbs 
    atoms 52-103                                                                                entry H          line    36 file /theoryfs2/ds/schieber/Gits/mspsi4/objdir3/stage/usr/local/psi4/share/psi4/basis/aug-cc-pvqz.gbs 


         ---------------------------------------------------------
                                   SCF
            by Justin Turney, Rob Parrish, Andy Simmonett
                             and Daniel Smith
                              RHF Reference
                        6 Threads,  57220 MiB Core
         ---------------------------------------------------------

  ==> Geometry <==

    Molecular point group: c1
    Full point group: C1

    Geometry (in Angstrom), charge = 0, multiplicity = 1:

       Center              X                  Y                   Z               Mass       
    ------------   -----------------  -----------------  -----------------  -----------------
           N          1.834525169641     8.467048519537     3.745546000143    14.003074004780
           C          1.061525169641     7.539048519537     2.955546000143    12.000000000000
           C          0.153525169641     8.315048519537     2.004546000143    12.000000000000
           O         -0.948474830359     8.701048519537     2.355546000143    15.994914619560
           C          0.255525169641     6.665048519537     3.929546000143    12.000000000000
           C         -0.475474830359     5.536048519537     3.264546000143    12.000000000000
           O         -0.555474830359     5.481048519537     2.023546000143    15.994914619560
           O         -1.029474830359     4.719048519537     4.000546000143    15.994914619560
           N        -12.224474830359     2.065048519537     5.913546000143    14.003074004780
           C        -11.905474830359     0.800048519537     5.263546000143    12.000000000000
           C        -10.526474830359     0.743048519537     4.639546000143    12.000000000000
           O        -10.068474830359     1.712048519537     4.018546000143    15.994914619560
           N          0.615525169641     5.077048519537    -4.318453999857    14.003074004780
           C          0.435525169641     4.774048519537    -2.907453999857    12.000000000000
           C          1.763525169641     4.469048519537    -2.228453999857    12.000000000000
           O          2.211525169641     3.332048519537    -2.189453999857    15.994914619560
           C         -0.533474830359     3.595048519537    -2.797453999857    12.000000000000
           C         -1.032474830359     3.359048519537    -1.388453999857    12.000000000000
           O         -0.392474830359     3.803048519537    -0.428453999857    15.994914619560
           O         -2.060474830359     2.698048519537    -1.236453999857    15.994914619560
           N          2.314525169641     4.222048519537     0.806546000143    14.003074004780
           C          2.165525169641     3.395048519537     1.994546000143    12.000000000000
           C          2.053525169641     1.926048519537     1.638546000143    12.000000000000
           O          1.868525169641     1.077048519537     2.535546000143    15.994914619560
           N          3.744525169641    -1.417951480463     0.036546000143    14.003074004780
           C          4.987525169641    -2.064951480463    -0.385453999857    12.000000000000
           C          4.901525169641    -2.602951480463    -1.774453999857    12.000000000000
           O          5.850525169641    -2.474951480463    -2.520453999857    15.994914619560
           C          5.377525169641    -3.149951480463     0.565546000143    12.000000000000
           C          5.480525169641    -2.639951480463     1.962546000143    12.000000000000
           O          5.922525169641    -1.494951480463     2.147546000143    15.994914619560
           O          5.044525169641    -3.329951480463     2.896546000143    15.994914619560
           N          3.732525169641    -3.108951480463    -2.162453999857    14.003074004780
           C          3.563525169641    -3.749951480463    -3.465453999857    12.000000000000
           C          2.420525169641    -3.169951480463    -4.252453999857    12.000000000000
           O          1.591525169641    -2.453951480463    -3.727453999857    15.994914619560
           C          3.292525169641    -5.231951480463    -3.294453999857    12.000000000000
           C          4.231525169641    -5.888951480463    -2.295453999857    12.000000000000
           O          5.441525169641    -6.006951480463    -2.616453999857    15.994914619560
           O          3.739525169641    -6.294951480463    -1.209453999857    15.994914619560
           N         -1.041474830359    -3.874951480463    -6.321453999857    14.003074004780
           C         -2.163474830359    -4.814951480463    -6.395453999857    12.000000000000
           C         -3.173474830359    -4.250951480463    -7.317453999857    12.000000000000
           O         -3.622474830359    -3.115951480463    -7.144453999857    15.994914619560
           C         -3.010474830359    -4.971951480463    -5.126453999857    12.000000000000
           C         -3.494474830359    -6.384951480463    -5.065453999857    12.000000000000
           C         -2.273474830359    -4.521951480463    -3.888453999857    12.000000000000
           N         -3.208474830359    -5.080951480463     5.357546000143    14.003074004780
           C         -3.307474830359    -3.657951480463     5.577546000143    12.000000000000
           C         -4.144474830359    -3.411951480463     6.790546000143    12.000000000000
           O         -3.911474830359    -4.000951480463     7.839546000143    15.994914619560
           H          1.388525169641     9.013048519537     4.413546000143     1.007825032070
           H          1.718525169641     6.858048519537     2.367546000143     1.007825032070
           H         -0.455474830359     7.299048519537     4.495546000143     1.007825032070
           H          0.986525169641     6.209048519537     4.634546000143     1.007825032070
           H         -0.946474830359     4.725048519537     4.961546000143     1.007825032070
           H        -12.355474830359     2.894048519537     5.313546000143     1.007825032070
           H        -12.047474830359    -0.046951480463     5.920546000143     1.007825032070
           H        -12.648474830359     0.655048519537     4.453546000143     1.007825032070
           H          1.068525169641     4.444048519537    -4.904453999857     1.007825032070
           H         -0.067474830359     5.618048519537    -2.381453999857     1.007825032070
           H         -0.067474830359     2.686048519537    -3.218453999857     1.007825032070
           H         -1.428474830359     3.868048519537    -3.400453999857     1.007825032070
           H         -0.054474830359     3.194048519537     0.227546000143     1.007825032070
           H          1.522525169641     4.794048519537     0.495546000143     1.007825032070
           H          1.223525169641     3.654048519537     2.509546000143     1.007825032070
           H          3.000525169641     3.590048519537     2.695546000143     1.007825032070
           H          3.184525169641    -1.903951480463     0.715546000143     1.007825032070
           H          5.810525169641    -1.312951480463    -0.344453999857     1.007825032070
           H          6.383525169641    -3.517951480463     0.262546000143     1.007825032070
           H          4.673525169641    -4.010951480463     0.510546000143     1.007825032070
           H          4.700525169641    -4.224951480463     2.752546000143     1.007825032070
           H          2.943525169641    -3.158951480463    -1.500453999857     1.007825032070
           H          4.499525169641    -3.636951480463    -4.051453999857     1.007825032070
           H          3.317525169641    -5.788951480463    -4.255453999857     1.007825032070
           H          2.258525169641    -5.328951480463    -2.893453999857     1.007825032070
           H          2.837525169641    -6.612951480463    -1.147453999857     1.007825032070
           H         -1.250474830359    -2.911951480463    -6.053453999857     1.007825032070
           H         -1.780474830359    -5.796951480463    -6.717453999857     1.007825032070
           H         -3.905474830359    -4.302951480463    -5.084453999857     1.007825032070
           H         -2.676474830359    -7.104951480463    -4.927453999857     1.007825032070
           H         -4.085474830359    -6.653951480463    -5.967453999857     1.007825032070
           H         -4.167474830359    -6.498951480463    -4.188453999857     1.007825032070
           H         -1.386474830359    -5.177951480463    -3.817453999857     1.007825032070
           H         -2.905474830359    -4.660951480463    -2.984453999857     1.007825032070
           H         -1.978474830359    -3.454951480463    -3.949453999857     1.007825032070
           H         -4.063474830359    -5.583951480463     5.271546000143     1.007825032070
           H         -3.738474830359    -3.186951480463     4.673546000143     1.007825032070
           H         -2.311474830359    -3.195951480463     5.742546000143     1.007825032070
           H          2.854525169641     8.442048519537     3.737546000143     1.007825032070
           H          0.503525169641     8.438048519537     0.968546000143     1.007825032070
           H        -12.337474830359     2.140048519537     6.924546000143     1.007825032070
           H         -9.904474830359    -0.112951480463     4.940546000143     1.007825032070
           H          0.155525169641     5.881048519537    -4.745453999857     1.007825032070
           H          2.268525169641     5.307048519537    -1.726453999857     1.007825032070
           H          3.242525169641     4.370048519537     0.408546000143     1.007825032070
           H          2.032525169641     1.677048519537     0.567546000143     1.007825032070
           H          3.405525169641    -0.581951480463    -0.438453999857     1.007825032070
           H          2.370525169641    -3.483951480463    -5.305453999857     1.007825032070
           H         -0.076474830359    -4.147951480463    -6.505453999857     1.007825032070
           H         -3.522474830359    -4.916951480463    -8.120453999857     1.007825032070
           H         -2.297474830359    -5.529951480463     5.260546000143     1.007825032070
           H         -4.809474830359    -2.538951480463     6.717546000143     1.007825032070

  Running in c1 symmetry.

  Rotational constants: A =      0.00083  B =      0.00061  C =      0.00051 [cm^-1]
  Rotational constants: A =     24.83034  B =     18.39626  C =     15.29315 [MHz]
  Nuclear repulsion = 6201.543659593415214

  Charge       = 0
  Multiplicity = 1
  Electrons    = 398
  Nalpha       = 199
  Nbeta        = 199

  ==> Algorithm <==

  SCF Algorithm Type is DF.
  DIIS enabled.
  MOM disabled.
  Fractional occupation disabled.
  Guess Type is SAD.
  Energy threshold   = 1.00e-06
  Density threshold  = 1.00e-06
  Integral threshold = 0.00e+00

  ==> Primary Basis <==

  Basis Set: AUG-CC-PVQZ
    Blend: AUG-CC-PVQZ
    Number of shells: 1748
    Number of basis function: 6472
    Number of Cartesian functions: 8215
    Spherical Harmonics?: true
    Max angular momentum: 4

   => Loading Basis Set <=

    Name: (AUG-CC-PVQZ AUX)
    Role: JKFIT
    Keyword: DF_BASIS_SCF
    atoms 1, 9, 13, 21, 25, 33, 41, 48                                                          entry N          line   248 file /theoryfs2/ds/schieber/Gits/mspsi4/objdir3/stage/usr/local/psi4/share/psi4/basis/aug-cc-pvqz-jkfit.gbs 
    atoms 2-3, 5-6, 10-11, 14-15, 17-18, 22-23, 26-27, 29-30, 34-35, 37-38, 42-43, 45-47, 49-50 entry C          line   178 file /theoryfs2/ds/schieber/Gits/mspsi4/objdir3/stage/usr/local/psi4/share/psi4/basis/aug-cc-pvqz-jkfit.gbs 
    atoms 4, 7-8, 12, 16, 19-20, 24, 28, 31-32, 36, 39-40, 44, 51                               entry O          line   318 file /theoryfs2/ds/schieber/Gits/mspsi4/objdir3/stage/usr/local/psi4/share/psi4/basis/aug-cc-pvqz-jkfit.gbs 
    atoms 52-103                                                                                entry H          line    70 file /theoryfs2/ds/schieber/Gits/mspsi4/objdir3/stage/usr/local/psi4/share/psi4/basis/aug-cc-pvqz-jkfit.gbs 

  ==> Pre-Iterations <==

   -------------------------------------------------------
    Irrep   Nso     Nmo     Nalpha   Nbeta   Ndocc  Nsocc
   -------------------------------------------------------
     A       6472    6472       0       0       0       0
   -------------------------------------------------------
    Total    6472    6472     199     199     199       0
   -------------------------------------------------------

  ==> Integral Setup <==


    ==> DF_Helper memory announcement <==
        Turning off in-core AOs.  DF_Helper needs at least (1536.36GB), but it only got (45GB)

    ==> DF_Helper <==
      nao           = 6472
      naux          = 11194
      Scwarz cutoff = 1.000000E-12
      mem (doubles) = 5625000000
      nthreads      = 6
      Algorithm     = STORE
      AO_core?      = 0
      MO_core?      = 0
      hold metric   = 0
      metric power  = -5.000000E-01
  Fitting condition = 1.000000E-12
  Mask sparsity (%) = (67.581961)


  Minimum eigenvalue in the overlap matrix is 9.6057064335E-08.
  Using Canonical Orthogonalization with cutoff of 1.0000000000E-07.
  Overall, 1 of 6472 possible MOs eliminated.

  SCF Guess: Superposition of Atomic Densities via on-the-fly atomic UHF.

  ==> Iterations <==

                           Total Energy        Delta E     RMS |[F,P]|

   @DF-RHF iter   0: -2704.97904741494631   -2.70498e+03   5.14502e-03 
   @DF-RHF iter   1: -2685.22954273029382    1.97495e+01   6.50459e-04 
   @DF-RHF iter   2: -2686.44578085247213   -1.21624e+00   4.40351e-04 DIIS
   @DF-RHF iter   3: -2686.95079174790408   -5.05011e-01   1.08836e-04 DIIS
   @DF-RHF iter   4: -2687.01803724704769   -6.72455e-02   3.79688e-05 DIIS
   @DF-RHF iter   5: -2687.02887202718557   -1.08348e-02   1.55630e-05 DIIS
   @DF-RHF iter   6: -2687.03170125039605   -2.82922e-03   7.50814e-06 DIIS
   @DF-RHF iter   7: -2687.03244971425374   -7.48464e-04   3.18233e-06 DIIS
   @DF-RHF iter   8: -2687.03258019006262   -1.30476e-04   1.52810e-06 DIIS
   @DF-RHF iter   9: -2687.03261206913476   -3.18791e-05   6.93412e-07 DIIS
   @DF-RHF iter  10: -2687.03262021157298   -8.14244e-06   3.20722e-07 DIIS
   @DF-RHF iter  11: -2687.03262220840679   -1.99683e-06   1.30500e-07 DIIS
   @DF-RHF iter  12: -2687.03262250617627   -2.97769e-07   5.76387e-08 DIIS

  ==> Post-Iterations <==

    Orbital Energies (a.u.)
    -----------------------

    Doubly Occupied:                                                      

       1A    -20.653715     2A    -20.643436     3A    -20.633071  
       4A    -20.600100     5A    -20.582046     6A    -20.564768  
       7A    -20.558864     8A    -20.557602     9A    -20.557111  
      10A    -20.557062    11A    -20.550715    12A    -20.549821  
      13A    -20.538030    14A    -20.515808    15A    -20.512740  
      16A    -20.511122    17A    -15.597153    18A    -15.557888  
      19A    -15.549995    20A    -15.546748    21A    -15.545278  
      22A    -15.543134    23A    -15.540901    24A    -15.539528  
      25A    -11.412064    26A    -11.395588    27A    -11.378735  
      28A    -11.363813    29A    -11.356913    30A    -11.342040  
      31A    -11.339470    32A    -11.336720    33A    -11.335470  
      34A    -11.333692    35A    -11.330750    36A    -11.330138  
      37A    -11.309569    38A    -11.295574    39A    -11.287900  
      40A    -11.286146    41A    -11.280204    42A    -11.276230  
      43A    -11.275404    44A    -11.274107    45A    -11.273728  
      46A    -11.263612    47A    -11.259032    48A    -11.235466  
      49A    -11.230191    50A    -11.228936    51A    -11.217822  
      52A     -1.527595    53A     -1.523909    54A     -1.510391  
      55A     -1.497511    56A     -1.416259    57A     -1.394964  
      58A     -1.391122    59A     -1.389110    60A     -1.382729  
      61A     -1.377665    62A     -1.372616    63A     -1.367641  
      64A     -1.356901    65A     -1.356455    66A     -1.336776  
      67A     -1.330880    68A     -1.254299    69A     -1.213805  
      70A     -1.200634    71A     -1.191155    72A     -1.187442  
      73A     -1.184232    74A     -1.182372    75A     -1.170937  
      76A     -1.098557    77A     -1.085630    78A     -1.055352  
      79A     -1.051933    80A     -1.041535    81A     -0.978158  
      82A     -0.970215    83A     -0.969556    84A     -0.969325  
      85A     -0.964088    86A     -0.949745    87A     -0.935652  
      88A     -0.935388    89A     -0.929158    90A     -0.910906  
      91A     -0.906638    92A     -0.887088    93A     -0.873625  
      94A     -0.831153    95A     -0.812212    96A     -0.809635  
      97A     -0.802629    98A     -0.799360    99A     -0.797055  
     100A     -0.796589   101A     -0.793749   102A     -0.766504  
     103A     -0.752596   104A     -0.747686   105A     -0.733711  
     106A     -0.730360   107A     -0.718512   108A     -0.717863  
     109A     -0.714217   110A     -0.709093   111A     -0.705031  
     112A     -0.701225   113A     -0.701144   114A     -0.698675  
     115A     -0.695986   116A     -0.694397   117A     -0.692224  
     118A     -0.687798   119A     -0.685128   120A     -0.683556  
     121A     -0.680790   122A     -0.667516   123A     -0.665748  
     124A     -0.663063   125A     -0.660647   126A     -0.658740  
     127A     -0.656388   128A     -0.655673   129A     -0.652297  
     130A     -0.651411   131A     -0.643375   132A     -0.641142  
     133A     -0.638554   134A     -0.631002   135A     -0.630907  
     136A     -0.629719   137A     -0.629567   138A     -0.628595  
     139A     -0.628270   140A     -0.628082   141A     -0.620798  
     142A     -0.612888   143A     -0.611449   144A     -0.607495  
     145A     -0.599939   146A     -0.591840   147A     -0.589850  
     148A     -0.577367   149A     -0.576899   150A     -0.573661  
     151A     -0.573376   152A     -0.565313   153A     -0.562764  
     154A     -0.561152   155A     -0.557012   156A     -0.556998  
     157A     -0.554399   158A     -0.551346   159A     -0.543818  
     160A     -0.537210   161A     -0.532432   162A     -0.531444  
     163A     -0.528493   164A     -0.526305   165A     -0.523952  
     166A     -0.519155   167A     -0.515962   168A     -0.515224  
     169A     -0.504842   170A     -0.503307   171A     -0.492244  
     172A     -0.491819   173A     -0.488335   174A     -0.482123  
     175A     -0.481930   176A     -0.474246   177A     -0.466231  
     178A     -0.462162   179A     -0.456932   180A     -0.455264  
     181A     -0.451359   182A     -0.447364   183A     -0.446773  
     184A     -0.444508   185A     -0.443319   186A     -0.442888  
     187A     -0.439344   188A     -0.434960   189A     -0.433598  
     190A     -0.433262   191A     -0.429467   192A     -0.408002  
     193A     -0.386196   194A     -0.381432   195A     -0.375940  
     196A     -0.374869   197A     -0.374235   198A     -0.371426  
     199A     -0.365794  

    Virtual:                                                              

     200A     -0.000038   201A      0.012065   202A      0.012778  
     203A      0.017607   204A      0.019304   205A      0.021658  
     206A      0.023596   207A      0.024725   208A      0.026771  
     209A      0.030047   210A      0.031567   211A      0.033224  
     212A      0.034114   213A      0.035134   214A      0.036180  
     215A      0.037219   216A      0.038988   217A      0.039818  
     218A      0.041181   219A      0.044964   220A      0.046010  
     221A      0.047047   222A      0.047586   223A      0.049619  
     224A      0.050698   225A      0.050896   226A      0.053736  
     227A      0.055036   228A      0.056566   229A      0.057965  
     230A      0.059312   231A      0.059817   232A      0.060447  
     233A      0.060959   234A      0.063388   235A      0.063826  
     236A      0.064892   237A      0.067893   238A      0.069204  
     239A      0.070906   240A      0.072129   241A      0.072925  
     242A      0.074039   243A      0.074257   244A      0.076314  
     245A      0.077511   246A      0.078719   247A      0.080565  
     248A      0.080988   249A      0.082236   250A      0.083157  
     251A      0.085289   252A      0.085756   253A      0.087307  
     254A      0.087720   255A      0.088771   256A      0.089280  
     257A      0.090279   258A      0.092360   259A      0.093073  
     260A      0.093883   261A      0.095719   262A      0.096561  
     263A      0.097641   264A      0.098171   265A      0.099223  
     266A      0.100288   267A      0.100968   268A      0.101684  
     269A      0.102179   270A      0.104435   271A      0.104718  
     272A      0.105120   273A      0.106109   274A      0.107368  
     275A      0.108994   276A      0.110382   277A      0.110609  
     278A      0.111727   279A      0.113107   280A      0.114214  
     281A      0.115471   282A      0.115986   283A      0.117106  
     284A      0.117542   285A      0.119084   286A      0.119879  
     287A      0.120480   288A      0.120910   289A      0.121455  
     290A      0.122426   291A      0.123282   292A      0.124250  
     293A      0.125083   294A      0.125367   295A      0.126013  
     296A      0.126807   297A      0.127195   298A      0.128172  
     299A      0.128581   300A      0.129371   301A      0.130237  
     302A      0.131389   303A      0.132542   304A      0.134067  
     305A      0.134556   306A      0.135581   307A      0.135809  
     308A      0.136450   309A      0.138253   310A      0.139449  
     311A      0.139895   312A      0.140143   313A      0.141482  
     314A      0.142514   315A      0.143194   316A      0.145726  
     317A      0.146881   318A      0.147235   319A      0.148729  
     320A      0.149089   321A      0.150010   322A      0.150800  
     323A      0.151345   324A      0.152292   325A      0.153821  
     326A      0.154033   327A      0.155207   328A      0.155880  
     329A      0.157104   330A      0.157625   331A      0.158304  
     332A      0.160386   333A      0.160916   334A      0.161891  
     335A      0.163464   336A      0.164226   337A      0.164744  
     338A      0.165371   339A      0.166264   340A      0.167367  
     341A      0.167911   342A      0.168685   343A      0.169654  
     344A      0.170916   345A      0.171690   346A      0.172875  
     347A      0.174265   348A      0.174455   349A      0.175231  
     350A      0.176520   351A      0.177813   352A      0.178330  
     353A      0.179270   354A      0.180199   355A      0.180671  
     356A      0.182861   357A      0.184054   358A      0.184574  
     359A      0.186038   360A      0.186869   361A      0.188535  
     362A      0.189045   363A      0.189826   364A      0.190616  
     365A      0.192360   366A      0.192962   367A      0.194704  
     368A      0.195819   369A      0.196065   370A      0.197446  
     371A      0.198524   372A      0.199230   373A      0.200091  
     374A      0.201205   375A      0.201790   376A      0.202955  
     377A      0.203063   378A      0.204107   379A      0.204513  
     380A      0.206207   381A      0.206882   382A      0.207521  
     383A      0.209218   384A      0.209821   385A      0.211568  
     386A      0.211930   387A      0.213673   388A      0.214437  
     389A      0.214809   390A      0.216598   391A      0.216824  
     392A      0.218040   393A      0.219419   394A      0.220330  
     395A      0.220772   396A      0.222108   397A      0.222621  
     398A      0.223272   399A      0.224327   400A      0.225892  
     401A      0.227322   402A      0.228728   403A      0.230026  
     404A      0.230981   405A      0.231624   406A      0.232455  
     407A      0.232784   408A      0.234005   409A      0.235534  
     410A      0.236149   411A      0.236730   412A      0.237850  
     413A      0.238746   414A      0.240089   415A      0.240898  
     416A      0.242193   417A      0.243194   418A      0.245418  
     419A      0.245803   420A      0.246352   421A      0.247383  
     422A      0.248091   423A      0.248446   424A      0.249650  
     425A      0.250241   426A      0.251182   427A      0.251522  
     428A      0.252259   429A      0.253179   430A      0.255013  
     431A      0.255292   432A      0.256055   433A      0.256309  
     434A      0.256752   435A      0.258249   436A      0.258647  
     437A      0.259229   438A      0.260725   439A      0.261967  
     440A      0.263469   441A      0.263656   442A      0.264283  
     443A      0.265498   444A      0.266176   445A      0.267252  
     446A      0.267617   447A      0.268634   448A      0.269779  
     449A      0.270125   450A      0.270901   451A      0.271065  
     452A      0.271752   453A      0.273388   454A      0.273861  
     455A      0.274183   456A      0.276078   457A      0.277133  
     458A      0.277671   459A      0.279571   460A      0.279838  
     461A      0.280738   462A      0.281537   463A      0.283462  
     464A      0.284290   465A      0.285811   466A      0.286443  
     467A      0.286990   468A      0.287355   469A      0.288191  
     470A      0.289343   471A      0.290395   472A      0.290714  
     473A      0.291068   474A      0.292119   475A      0.292876  
     476A      0.293986   477A      0.294984   478A      0.295822  
     479A      0.295931   480A      0.297407   481A      0.298207  
     482A      0.298593   483A      0.298778   484A      0.300061  
     485A      0.301006   486A      0.301657   487A      0.302409  
     488A      0.303302   489A      0.304290   490A      0.304848  
     491A      0.305254   492A      0.307439   493A      0.307768  
     494A      0.308150   495A      0.308664   496A      0.310510  
     497A      0.310746   498A      0.311267   499A      0.311630  
     500A      0.312643   501A      0.314517   502A      0.315482  
     503A      0.316267   504A      0.316482   505A      0.317415  
     506A      0.318525   507A      0.319668   508A      0.319960  
     509A      0.320850   510A      0.321543   511A      0.321894  
     512A      0.322341   513A      0.323496   514A      0.324093  
     515A      0.324702   516A      0.325331   517A      0.326934  
     518A      0.327581   519A      0.329007   520A      0.330224  
     521A      0.331212   522A      0.331793   523A      0.332503  
     524A      0.333831   525A      0.334315   526A      0.335021  
     527A      0.335403   528A      0.336682   529A      0.336939  
     530A      0.338522   531A      0.339114   532A      0.339968  
     533A      0.340493   534A      0.341100   535A      0.341485  
     536A      0.342965   537A      0.343192   538A      0.344767  
     539A      0.346322   540A      0.347286   541A      0.348289  
     542A      0.349075   543A      0.350255   544A      0.350613  
     545A      0.351331   546A      0.352687   547A      0.354286  
     548A      0.354475   549A      0.355179   550A      0.356195  
     551A      0.357148   552A      0.357390   553A      0.357946  
     554A      0.358478   555A      0.359407   556A      0.360011  
     557A      0.361080   558A      0.361340   559A      0.362898  
     560A      0.363520   561A      0.364904   562A      0.365641  
     563A      0.366655   564A      0.367193   565A      0.367963  
     566A      0.368612   567A      0.370814   568A      0.371233  
     569A      0.372069   570A      0.372841   571A      0.373146  
     572A      0.374521   573A      0.375670   574A      0.376448  
     575A      0.377074   576A      0.377805   577A      0.378104  
     578A      0.379765   579A      0.380635   580A      0.381518  
     581A      0.382390   582A      0.383087   583A      0.383528  
     584A      0.384258   585A      0.386095   586A      0.386299  
     587A      0.387830   588A      0.387859   589A      0.389156  
     590A      0.390066   591A      0.391080   592A      0.391706  
     593A      0.392614   594A      0.392916   595A      0.394121  
     596A      0.395464   597A      0.396499   598A      0.397074  
     599A      0.398037   600A      0.398579   601A      0.399420  
     602A      0.400111   603A      0.400898   604A      0.402109  
     605A      0.403063   606A      0.404308   607A      0.404783  
     608A      0.405737   609A      0.406864   610A      0.407318  
     611A      0.407743   612A      0.408419   613A      0.410666  
     614A      0.411143   615A      0.411925   616A      0.412832  
     617A      0.414038   618A      0.414576   619A      0.416046  
     620A      0.416997   621A      0.417614   622A      0.418420  
     623A      0.418563   624A      0.419901   625A      0.421623  
     626A      0.422322   627A      0.422868   628A      0.423550  
     629A      0.424749   630A      0.425285   631A      0.427121  
     632A      0.427698   633A      0.428369   634A      0.428847  
     635A      0.429857   636A      0.429935   637A      0.430839  
     638A      0.431536   639A      0.431849   640A      0.432938  
     641A      0.433951   642A      0.434578   643A      0.435356  
     644A      0.436290   645A      0.436925   646A      0.437350  
     647A      0.438598   648A      0.438991   649A      0.439915  
     650A      0.440831   651A      0.441657   652A      0.442600  
     653A      0.443252   654A      0.444239   655A      0.444980  
     656A      0.445599   657A      0.445811   658A      0.446655  
     659A      0.449335   660A      0.449745   661A      0.450153  
     662A      0.450745   663A      0.451798   664A      0.453080  
     665A      0.453490   666A      0.455000   667A      0.456339  
     668A      0.457841   669A      0.458045   670A      0.458419  
     671A      0.459907   672A      0.461335   673A      0.461566  
     674A      0.462343   675A      0.463792   676A      0.463852  
     677A      0.464221   678A      0.465099   679A      0.466188  
     680A      0.467523   681A      0.468765   682A      0.469225  
     683A      0.469752   684A      0.470936   685A      0.471895  
     686A      0.472294   687A      0.474285   688A      0.475101  
     689A      0.475286   690A      0.476588   691A      0.477007  
     692A      0.478382   693A      0.478819   694A      0.479935  
     695A      0.481299   696A      0.482661   697A      0.483105  
     698A      0.483864   699A      0.484933   700A      0.485354  
     701A      0.486725   702A      0.486778   703A      0.487705  
     704A      0.488067   705A      0.490100   706A      0.491584  
     707A      0.491946   708A      0.492853   709A      0.493189  
     710A      0.493727   711A      0.494930   712A      0.496370  
     713A      0.497078   714A      0.497334   715A      0.497990  
     716A      0.500382   717A      0.500441   718A      0.500778  
     719A      0.502461   720A      0.503041   721A      0.503754  
     722A      0.504401   723A      0.505495   724A      0.506154  
     725A      0.506799   726A      0.507288   727A      0.508936  
     728A      0.509404   729A      0.510711   730A      0.511256  
     731A      0.512253   732A      0.512705   733A      0.514014  
     734A      0.515970   735A      0.516662   736A      0.517595  
     737A      0.518350   738A      0.519321   739A      0.519601  
     740A      0.521163   741A      0.521867   742A      0.523649  
     743A      0.523732   744A      0.524841   745A      0.525616  
     746A      0.526300   747A      0.527092   748A      0.528262  
     749A      0.528814   750A      0.529654   751A      0.530789  
     752A      0.532113   753A      0.533539   754A      0.533954  
     755A      0.535057   756A      0.535783   757A      0.537280  
     758A      0.538912   759A      0.539710   760A      0.540272  
     761A      0.540976   762A      0.541342   763A      0.541990  
     764A      0.543258   765A      0.544237   766A      0.544448  
     767A      0.546394   768A      0.547457   769A      0.548691  
     770A      0.549657   771A      0.550308   772A      0.550830  
     773A      0.552181   774A      0.552746   775A      0.553563  
     776A      0.554594   777A      0.556186   778A      0.557166  
     779A      0.557927   780A      0.558498   781A      0.559491  
     782A      0.560551   783A      0.562064   784A      0.562452  
     785A      0.564373   786A      0.565442   787A      0.565497  
     788A      0.566685   789A      0.566960   790A      0.569392  
     791A      0.569785   792A      0.571052   793A      0.571314  
     794A      0.572410   795A      0.572797   796A      0.574751  
     797A      0.575453   798A      0.576454   799A      0.577833  
     800A      0.579243   801A      0.579561   802A      0.581356  
     803A      0.582997   804A      0.583090   805A      0.585108  
     806A      0.585583   807A      0.586084   808A      0.587152  
     809A      0.587453   810A      0.588209   811A      0.589079  
     812A      0.590726   813A      0.591302   814A      0.591704  
     815A      0.592627   816A      0.593773   817A      0.595554  
     818A      0.595905   819A      0.597258   820A      0.598815  
     821A      0.600599   822A      0.601737   823A      0.602807  
     824A      0.604025   825A      0.605715   826A      0.606648  
     827A      0.607709   828A      0.608861   829A      0.609602  
     830A      0.611202   831A      0.613120   832A      0.613788  
     833A      0.614797   834A      0.615311   835A      0.615792  
     836A      0.616969   837A      0.617928   838A      0.618351  
     839A      0.620921   840A      0.622219   841A      0.623298  
     842A      0.623510   843A      0.625004   844A      0.625600  
     845A      0.626814   846A      0.626864   847A      0.628886  
     848A      0.629235   849A      0.630318   850A      0.631953  
     851A      0.632594   852A      0.633204   853A      0.634459  
     854A      0.635415   855A      0.636890   856A      0.637549  
     857A      0.638398   858A      0.639333   859A      0.640455  
     860A      0.641939   861A      0.643080   862A      0.643245  
     863A      0.644553   864A      0.645122   865A      0.646357  
     866A      0.647024   867A      0.647690   868A      0.648418  
     869A      0.649650   870A      0.650590   871A      0.650949  
     872A      0.652834   873A      0.653089   874A      0.653893  
     875A      0.655207   876A      0.656480   877A      0.656803  
     878A      0.658688   879A      0.658901   880A      0.660384  
     881A      0.660860   882A      0.662297   883A      0.662416  
     884A      0.664534   885A      0.666543   886A      0.666743  
     887A      0.667465   888A      0.668264   889A      0.668861  
     890A      0.669432   891A      0.670267   892A      0.670565  
     893A      0.671812   894A      0.673642   895A      0.673939  
     896A      0.674607   897A      0.676571   898A      0.677217  
     899A      0.677679   900A      0.678228   901A      0.679073  
     902A      0.680894   903A      0.681184   904A      0.682452  
     905A      0.683058   906A      0.683827   907A      0.685373  
     908A      0.686063   909A      0.686801   910A      0.688108  
     911A      0.688794   912A      0.689732   913A      0.690737  
     914A      0.692130   915A      0.693377   916A      0.694068  
     917A      0.694474   918A      0.695367   919A      0.695785  
     920A      0.696818   921A      0.697492   922A      0.698924  
     923A      0.700451   924A      0.700738   925A      0.701198  
     926A      0.702135   927A      0.703819   928A      0.704553  
     929A      0.705172   930A      0.706031   931A      0.707456  
     932A      0.707771   933A      0.709877   934A      0.710280  
     935A      0.711587   936A      0.712587   937A      0.712726  
     938A      0.713969   939A      0.714923   940A      0.716189  
     941A      0.717298   942A      0.717546   943A      0.718843  
     944A      0.720404   945A      0.721155   946A      0.722406  
     947A      0.723056   948A      0.723646   949A      0.723785  
     950A      0.724708   951A      0.727021   952A      0.728004  
     953A      0.728211   954A      0.729074   955A      0.729358  
     956A      0.731239   957A      0.731909   958A      0.732540  
     959A      0.733580   960A      0.734428   961A      0.735859  
     962A      0.736365   963A      0.737155   964A      0.737894  
     965A      0.739089   966A      0.739426   967A      0.739682  
     968A      0.741328   969A      0.741589   970A      0.742602  
     971A      0.743580   972A      0.743746   973A      0.745104  
     974A      0.746036   975A      0.746883   976A      0.747898  
     977A      0.748429   978A      0.749451   979A      0.749989  
     980A      0.751064   981A      0.751375   982A      0.752389  
     983A      0.753452   984A      0.754218   985A      0.755252  
     986A      0.756958   987A      0.757979   988A      0.758950  
     989A      0.759446   990A      0.760540   991A      0.760970  
     992A      0.762779   993A      0.763408   994A      0.763935  
     995A      0.765116   996A      0.766970   997A      0.767434  
     998A      0.767997   999A      0.768740  1000A      0.770366  
    1001A      0.771699  1002A      0.772821  1003A      0.773708  
    1004A      0.774234  1005A      0.774774  1006A      0.775753  
    1007A      0.776959  1008A      0.777539  1009A      0.778309  
    1010A      0.779114  1011A      0.780050  1012A      0.781132  
    1013A      0.781741  1014A      0.781894  1015A      0.782626  
    1016A      0.783737  1017A      0.784253  1018A      0.785073  
    1019A      0.785634  1020A      0.786055  1021A      0.787766  
    1022A      0.788218  1023A      0.788990  1024A      0.789830  
    1025A      0.791716  1026A      0.792265  1027A      0.792600  
    1028A      0.793432  1029A      0.793792  1030A      0.794107  
    1031A      0.795363  1032A      0.796309  1033A      0.797717  
    1034A      0.798957  1035A      0.800014  1036A      0.800246  
    1037A      0.801066  1038A      0.802720  1039A      0.803415  
    1040A      0.804355  1041A      0.804957  1042A      0.805941  
    1043A      0.807026  1044A      0.807228  1045A      0.807982  
    1046A      0.810678  1047A      0.811541  1048A      0.812551  
    1049A      0.813397  1050A      0.813841  1051A      0.814629  
    1052A      0.815479  1053A      0.816741  1054A      0.818168  
    1055A      0.819239  1056A      0.819880  1057A      0.820954  
    1058A      0.821468  1059A      0.822188  1060A      0.823549  
    1061A      0.824425  1062A      0.825535  1063A      0.825966  
    1064A      0.826378  1065A      0.826981  1066A      0.827466  
    1067A      0.828845  1068A      0.830324  1069A      0.831163  
    1070A      0.831733  1071A      0.833822  1072A      0.834264  
    1073A      0.835559  1074A      0.835596  1075A      0.837018  
    1076A      0.838278  1077A      0.840267  1078A      0.841242  
    1079A      0.842187  1080A      0.842697  1081A      0.843040  
    1082A      0.843394  1083A      0.844490  1084A      0.845465  
    1085A      0.845956  1086A      0.846947  1087A      0.847926  
    1088A      0.848822  1089A      0.850601  1090A      0.851156  
    1091A      0.852702  1092A      0.853102  1093A      0.854261  
    1094A      0.855180  1095A      0.856975  1096A      0.857186  
    1097A      0.858519  1098A      0.859753  1099A      0.860450  
    1100A      0.861547  1101A      0.862907  1102A      0.863655  
    1103A      0.863899  1104A      0.865075  1105A      0.865545  
    1106A      0.865901  1107A      0.868198  1108A      0.868866  
    1109A      0.869596  1110A      0.870425  1111A      0.872094  
    1112A      0.872655  1113A      0.873343  1114A      0.874243  
    1115A      0.875516  1116A      0.875967  1117A      0.877488  
    1118A      0.878081  1119A      0.878659  1120A      0.880392  
    1121A      0.881283  1122A      0.882063  1123A      0.883171  
    1124A      0.883774  1125A      0.884437  1126A      0.885662  
    1127A      0.886132  1128A      0.887207  1129A      0.888130  
    1130A      0.889610  1131A      0.891253  1132A      0.892088  
    1133A      0.892372  1134A      0.892688  1135A      0.894411  
    1136A      0.894706  1137A      0.895105  1138A      0.896576  
    1139A      0.897972  1140A      0.899199  1141A      0.900379  
    1142A      0.901185  1143A      0.902225  1144A      0.902721  
    1145A      0.904289  1146A      0.906131  1147A      0.906768  
    1148A      0.907404  1149A      0.907622  1150A      0.908182  
    1151A      0.909974  1152A      0.911318  1153A      0.913207  
    1154A      0.913352  1155A      0.914182  1156A      0.915483  
    1157A      0.915892  1158A      0.916275  1159A      0.917142  
    1160A      0.918606  1161A      0.920569  1162A      0.920797  
    1163A      0.921307  1164A      0.922371  1165A      0.922734  
    1166A      0.924093  1167A      0.924823  1168A      0.925553  
    1169A      0.926210  1170A      0.927382  1171A      0.928456  
    1172A      0.929510  1173A      0.931267  1174A      0.931917  
    1175A      0.932168  1176A      0.933458  1177A      0.933649  
    1178A      0.934333  1179A      0.935630  1180A      0.937377  
    1181A      0.937719  1182A      0.938341  1183A      0.939077  
    1184A      0.940055  1185A      0.940673  1186A      0.941762  
    1187A      0.942382  1188A      0.943922  1189A      0.945645  
    1190A      0.947253  1191A      0.948502  1192A      0.949357  
    1193A      0.950831  1194A      0.951499  1195A      0.952334  
    1196A      0.953078  1197A      0.953620  1198A      0.955484  
    1199A      0.956351  1200A      0.957230  1201A      0.958064  
    1202A      0.959074  1203A      0.959417  1204A      0.960565  
    1205A      0.962226  1206A      0.964181  1207A      0.964340  
    1208A      0.964865  1209A      0.965711  1210A      0.967207  
    1211A      0.967771  1212A      0.967964  1213A      0.968457  
    1214A      0.969480  1215A      0.970398  1216A      0.972220  
    1217A      0.973283  1218A      0.974888  1219A      0.976429  
    1220A      0.977976  1221A      0.978206  1222A      0.978759  
    1223A      0.979167  1224A      0.979748  1225A      0.980880  
    1226A      0.982914  1227A      0.983956  1228A      0.984361  
    1229A      0.985886  1230A      0.986547  1231A      0.986744  
    1232A      0.987923  1233A      0.988636  1234A      0.990501  
    1235A      0.992417  1236A      0.993461  1237A      0.995554  
    1238A      0.996630  1239A      0.997854  1240A      0.998368  
    1241A      0.998695  1242A      0.999024  1243A      1.000727  
    1244A      1.001161  1245A      1.002635  1246A      1.003514  
    1247A      1.003734  1248A      1.004622  1249A      1.005826  
    1250A      1.006839  1251A      1.007452  1252A      1.008631  
    1253A      1.010656  1254A      1.011315  1255A      1.011779  
    1256A      1.012480  1257A      1.013989  1258A      1.014993  
    1259A      1.016586  1260A      1.017097  1261A      1.018799  
    1262A      1.019691  1263A      1.020696  1264A      1.021086  
    1265A      1.022863  1266A      1.023690  1267A      1.023962  
    1268A      1.026025  1269A      1.026938  1270A      1.027393  
    1271A      1.029376  1272A      1.031215  1273A      1.031538  
    1274A      1.032327  1275A      1.034022  1276A      1.035128  
    1277A      1.035955  1278A      1.036804  1279A      1.038258  
    1280A      1.038664  1281A      1.040388  1282A      1.040655  
    1283A      1.041871  1284A      1.042431  1285A      1.044018  
    1286A      1.044722  1287A      1.045813  1288A      1.046377  
    1289A      1.048419  1290A      1.048769  1291A      1.049929  
    1292A      1.050672  1293A      1.052755  1294A      1.053977  
    1295A      1.055210  1296A      1.056405  1297A      1.057316  
    1298A      1.058017  1299A      1.058360  1300A      1.059645  
    1301A      1.059954  1302A      1.061262  1303A      1.063667  
    1304A      1.063881  1305A      1.065888  1306A      1.067190  
    1307A      1.068102  1308A      1.068359  1309A      1.069547  
    1310A      1.070297  1311A      1.071551  1312A      1.072352  
    1313A      1.072909  1314A      1.073663  1315A      1.075444  
    1316A      1.077008  1317A      1.077777  1318A      1.078045  
    1319A      1.078973  1320A      1.080125  1321A      1.081149  
    1322A      1.081790  1323A      1.082517  1324A      1.084719  
    1325A      1.085256  1326A      1.085650  1327A      1.087251  
    1328A      1.088727  1329A      1.090197  1330A      1.090810  
    1331A      1.090945  1332A      1.092180  1333A      1.093958  
    1334A      1.094942  1335A      1.097321  1336A      1.097688  
    1337A      1.097948  1338A      1.099527  1339A      1.100337  
    1340A      1.102115  1341A      1.103065  1342A      1.105129  
    1343A      1.105862  1344A      1.106815  1345A      1.108541  
    1346A      1.109729  1347A      1.110473  1348A      1.110928  
    1349A      1.111825  1350A      1.114291  1351A      1.114506  
    1352A      1.114992  1353A      1.116319  1354A      1.118108  
    1355A      1.119150  1356A      1.120019  1357A      1.120386  
    1358A      1.121421  1359A      1.122958  1360A      1.124295  
    1361A      1.126108  1362A      1.128484  1363A      1.128641  
    1364A      1.129280  1365A      1.130762  1366A      1.131479  
    1367A      1.131951  1368A      1.133177  1369A      1.134528  
    1370A      1.136367  1371A      1.136822  1372A      1.137475  
    1373A      1.138715  1374A      1.139863  1375A      1.140087  
    1376A      1.141331  1377A      1.141957  1378A      1.144767  
    1379A      1.146054  1380A      1.146530  1381A      1.147386  
    1382A      1.147804  1383A      1.150062  1384A      1.151635  
    1385A      1.153641  1386A      1.154406  1387A      1.155090  
    1388A      1.155743  1389A      1.157151  1390A      1.157335  
    1391A      1.159552  1392A      1.160526  1393A      1.161611  
    1394A      1.161893  1395A      1.163262  1396A      1.163368  
    1397A      1.164269  1398A      1.165726  1399A      1.167107  
    1400A      1.167961  1401A      1.169681  1402A      1.170512  
    1403A      1.172875  1404A      1.173133  1405A      1.174364  
    1406A      1.175406  1407A      1.176022  1408A      1.178093  
    1409A      1.178383  1410A      1.178988  1411A      1.181656  
    1412A      1.183084  1413A      1.184469  1414A      1.185052  
    1415A      1.185354  1416A      1.187164  1417A      1.188680  
    1418A      1.189637  1419A      1.190019  1420A      1.190785  
    1421A      1.193308  1422A      1.195183  1423A      1.196007  
    1424A      1.197238  1425A      1.198704  1426A      1.199317  
    1427A      1.200468  1428A      1.201564  1429A      1.203018  
    1430A      1.203279  1431A      1.204623  1432A      1.206472  
    1433A      1.206705  1434A      1.207469  1435A      1.208485  
    1436A      1.209881  1437A      1.210509  1438A      1.211744  
    1439A      1.212987  1440A      1.214080  1441A      1.214682  
    1442A      1.216469  1443A      1.217535  1444A      1.217871  
    1445A      1.219137  1446A      1.220912  1447A      1.221525  
    1448A      1.222835  1449A      1.223589  1450A      1.224856  
    1451A      1.225612  1452A      1.227457  1453A      1.228668  
    1454A      1.229657  1455A      1.230628  1456A      1.231067  
    1457A      1.233136  1458A      1.233647  1459A      1.234067  
    1460A      1.234314  1461A      1.236398  1462A      1.236942  
    1463A      1.237904  1464A      1.238668  1465A      1.239072  
    1466A      1.241369  1467A      1.242254  1468A      1.244202  
    1469A      1.245398  1470A      1.246337  1471A      1.247251  
    1472A      1.248032  1473A      1.248439  1474A      1.248781  
    1475A      1.249697  1476A      1.250668  1477A      1.252012  
    1478A      1.253482  1479A      1.255765  1480A      1.256014  
    1481A      1.258923  1482A      1.259480  1483A      1.261072  
    1484A      1.262155  1485A      1.263199  1486A      1.265247  
    1487A      1.267012  1488A      1.267451  1489A      1.269344  
    1490A      1.270029  1491A      1.270742  1492A      1.271671  
    1493A      1.273018  1494A      1.273823  1495A      1.274352  
    1496A      1.275495  1497A      1.276247  1498A      1.276575  
    1499A      1.279085  1500A      1.279393  1501A      1.280100  
    1502A      1.281446  1503A      1.282824  1504A      1.283833  
    1505A      1.284703  1506A      1.285430  1507A      1.286092  
    1508A      1.286991  1509A      1.289888  1510A      1.291483  
    1511A      1.291617  1512A      1.292613  1513A      1.293572  
    1514A      1.295324  1515A      1.296844  1516A      1.298495  
    1517A      1.299705  1518A      1.300742  1519A      1.301412  
    1520A      1.301910  1521A      1.302576  1522A      1.304040  
    1523A      1.304698  1524A      1.305985  1525A      1.306992  
    1526A      1.308414  1527A      1.311106  1528A      1.311724  
    1529A      1.312579  1530A      1.313180  1531A      1.314842  
    1532A      1.315917  1533A      1.316890  1534A      1.319461  
    1535A      1.320806  1536A      1.321115  1537A      1.322404  
    1538A      1.323525  1539A      1.324374  1540A      1.325959  
    1541A      1.326851  1542A      1.328069  1543A      1.329207  
    1544A      1.331248  1545A      1.331815  1546A      1.334060  
    1547A      1.334516  1548A      1.335394  1549A      1.336826  
    1550A      1.338627  1551A      1.339832  1552A      1.341844  
    1553A      1.342874  1554A      1.343636  1555A      1.344638  
    1556A      1.346481  1557A      1.347099  1558A      1.347400  
    1559A      1.349351  1560A      1.350756  1561A      1.352490  
    1562A      1.352936  1563A      1.353401  1564A      1.355684  
    1565A      1.357706  1566A      1.358791  1567A      1.359351  
    1568A      1.360075  1569A      1.361206  1570A      1.362721  
    1571A      1.364169  1572A      1.366350  1573A      1.366625  
    1574A      1.367828  1575A      1.368655  1576A      1.368959  
    1577A      1.370414  1578A      1.370948  1579A      1.372024  
    1580A      1.373020  1581A      1.373570  1582A      1.374521  
    1583A      1.376245  1584A      1.379121  1585A      1.379953  
    1586A      1.380559  1587A      1.381746  1588A      1.382570  
    1589A      1.384743  1590A      1.386692  1591A      1.388310  
    1592A      1.389776  1593A      1.391687  1594A      1.392580  
    1595A      1.395688  1596A      1.396952  1597A      1.397603  
    1598A      1.398292  1599A      1.399495  1600A      1.400557  
    1601A      1.401793  1602A      1.402469  1603A      1.403794  
    1604A      1.404791  1605A      1.406278  1606A      1.406663  
    1607A      1.407445  1608A      1.408531  1609A      1.410527  
    1610A      1.411998  1611A      1.413065  1612A      1.413763  
    1613A      1.415991  1614A      1.416882  1615A      1.418865  
    1616A      1.419331  1617A      1.422140  1618A      1.422674  
    1619A      1.424046  1620A      1.425583  1621A      1.426876  
    1622A      1.427884  1623A      1.429646  1624A      1.431039  
    1625A      1.431807  1626A      1.433682  1627A      1.434203  
    1628A      1.434905  1629A      1.435901  1630A      1.437209  
    1631A      1.437592  1632A      1.439476  1633A      1.440342  
    1634A      1.440777  1635A      1.442483  1636A      1.444310  
    1637A      1.445618  1638A      1.447101  1639A      1.447537  
    1640A      1.449045  1641A      1.451077  1642A      1.451472  
    1643A      1.454763  1644A      1.455139  1645A      1.457829  
    1646A      1.458139  1647A      1.459254  1648A      1.459918  
    1649A      1.461728  1650A      1.462645  1651A      1.463291  
    1652A      1.464353  1653A      1.466599  1654A      1.468660  
    1655A      1.469407  1656A      1.469865  1657A      1.471789  
    1658A      1.473358  1659A      1.474832  1660A      1.475865  
    1661A      1.478654  1662A      1.478822  1663A      1.479318  
    1664A      1.481184  1665A      1.481697  1666A      1.484195  
    1667A      1.485106  1668A      1.487462  1669A      1.488016  
    1670A      1.489944  1671A      1.490446  1672A      1.491489  
    1673A      1.492597  1674A      1.493781  1675A      1.496274  
    1676A      1.496706  1677A      1.497993  1678A      1.498573  
    1679A      1.499966  1680A      1.502024  1681A      1.503404  
    1682A      1.503641  1683A      1.503982  1684A      1.505215  
    1685A      1.507169  1686A      1.508552  1687A      1.510453  
    1688A      1.511240  1689A      1.512342  1690A      1.513417  
    1691A      1.515762  1692A      1.516647  1693A      1.520773  
    1694A      1.522072  1695A      1.523817  1696A      1.524644  
    1697A      1.527535  1698A      1.527607  1699A      1.529792  
    1700A      1.530820  1701A      1.531813  1702A      1.532256  
    1703A      1.532886  1704A      1.534792  1705A      1.536430  
    1706A      1.536668  1707A      1.536961  1708A      1.537966  
    1709A      1.539901  1710A      1.541283  1711A      1.542545  
    1712A      1.543845  1713A      1.545266  1714A      1.545497  
    1715A      1.547437  1716A      1.548269  1717A      1.551334  
    1718A      1.551528  1719A      1.553478  1720A      1.554503  
    1721A      1.555797  1722A      1.556369  1723A      1.557556  
    1724A      1.558696  1725A      1.559943  1726A      1.561310  
    1727A      1.563652  1728A      1.564319  1729A      1.565024  
    1730A      1.566310  1731A      1.568955  1732A      1.569368  
    1733A      1.570635  1734A      1.570779  1735A      1.572072  
    1736A      1.572728  1737A      1.573864  1738A      1.574390  
    1739A      1.576181  1740A      1.577965  1741A      1.578714  
    1742A      1.580468  1743A      1.581487  1744A      1.582764  
    1745A      1.583479  1746A      1.586613  1747A      1.586904  
    1748A      1.588492  1749A      1.589230  1750A      1.590908  
    1751A      1.592025  1752A      1.593811  1753A      1.596793  
    1754A      1.597399  1755A      1.597636  1756A      1.598157  
    1757A      1.599351  1758A      1.601373  1759A      1.602319  
    1760A      1.603879  1761A      1.604980  1762A      1.605715  
    1763A      1.606568  1764A      1.607356  1765A      1.608720  
    1766A      1.609320  1767A      1.609965  1768A      1.610831  
    1769A      1.611384  1770A      1.614816  1771A      1.615983  
    1772A      1.616786  1773A      1.620492  1774A      1.621047  
    1775A      1.622067  1776A      1.623260  1777A      1.623751  
    1778A      1.625446  1779A      1.627906  1780A      1.629076  
    1781A      1.630176  1782A      1.631404  1783A      1.632558  
    1784A      1.634178  1785A      1.635100  1786A      1.636044  
    1787A      1.637023  1788A      1.638128  1789A      1.639183  
    1790A      1.640219  1791A      1.641742  1792A      1.643884  
    1793A      1.645806  1794A      1.646236  1795A      1.647246  
    1796A      1.647774  1797A      1.649529  1798A      1.652059  
    1799A      1.653325  1800A      1.653664  1801A      1.655194  
    1802A      1.655355  1803A      1.658964  1804A      1.661069  
    1805A      1.661721  1806A      1.662164  1807A      1.663333  
    1808A      1.665317  1809A      1.666652  1810A      1.668297  
    1811A      1.668613  1812A      1.670965  1813A      1.672362  
    1814A      1.672621  1815A      1.673264  1816A      1.675952  
    1817A      1.676277  1818A      1.677795  1819A      1.678019  
    1820A      1.680191  1821A      1.681226  1822A      1.682178  
    1823A      1.682953  1824A      1.684625  1825A      1.685318  
    1826A      1.685823  1827A      1.687892  1828A      1.689217  
    1829A      1.690666  1830A      1.691874  1831A      1.693232  
    1832A      1.695083  1833A      1.695101  1834A      1.695802  
    1835A      1.699545  1836A      1.700985  1837A      1.702189  
    1838A      1.703910  1839A      1.704767  1840A      1.705622  
    1841A      1.707649  1842A      1.709080  1843A      1.709884  
    1844A      1.713530  1845A      1.713544  1846A      1.715065  
    1847A      1.716082  1848A      1.716588  1849A      1.719318  
    1850A      1.720599  1851A      1.723162  1852A      1.723861  
    1853A      1.725503  1854A      1.727429  1855A      1.728938  
    1856A      1.729477  1857A      1.730069  1858A      1.731006  
    1859A      1.732024  1860A      1.732971  1861A      1.733689  
    1862A      1.734196  1863A      1.735398  1864A      1.737220  
    1865A      1.737530  1866A      1.740794  1867A      1.742243  
    1868A      1.742858  1869A      1.744987  1870A      1.747448  
    1871A      1.748223  1872A      1.749708  1873A      1.749917  
    1874A      1.751323  1875A      1.752360  1876A      1.753369  
    1877A      1.754169  1878A      1.756912  1879A      1.757709  
    1880A      1.759644  1881A      1.761222  1882A      1.762320  
    1883A      1.763758  1884A      1.764185  1885A      1.766093  
    1886A      1.767279  1887A      1.767444  1888A      1.767949  
    1889A      1.769373  1890A      1.771751  1891A      1.772293  
    1892A      1.774129  1893A      1.774897  1894A      1.775830  
    1895A      1.779166  1896A      1.779427  1897A      1.780326  
    1898A      1.780819  1899A      1.782450  1900A      1.783316  
    1901A      1.785232  1902A      1.785347  1903A      1.786499  
    1904A      1.788262  1905A      1.789980  1906A      1.790718  
    1907A      1.793339  1908A      1.795239  1909A      1.795849  
    1910A      1.796295  1911A      1.797149  1912A      1.798661  
    1913A      1.800492  1914A      1.801236  1915A      1.802440  
    1916A      1.803365  1917A      1.803914  1918A      1.805535  
    1919A      1.807314  1920A      1.807779  1921A      1.808841  
    1922A      1.809313  1923A      1.810502  1924A      1.811559  
    1925A      1.814083  1926A      1.814795  1927A      1.816350  
    1928A      1.817061  1929A      1.818311  1930A      1.819023  
    1931A      1.820429  1932A      1.822799  1933A      1.823425  
    1934A      1.824840  1935A      1.825623  1936A      1.826269  
    1937A      1.827851  1938A      1.828788  1939A      1.831160  
    1940A      1.832753  1941A      1.832985  1942A      1.835785  
    1943A      1.837722  1944A      1.838279  1945A      1.838688  
    1946A      1.840257  1947A      1.842363  1948A      1.842752  
    1949A      1.845662  1950A      1.846508  1951A      1.847580  
    1952A      1.848286  1953A      1.848930  1954A      1.849330  
    1955A      1.850936  1956A      1.851644  1957A      1.853820  
    1958A      1.855270  1959A      1.856935  1960A      1.857792  
    1961A      1.858582  1962A      1.859224  1963A      1.859753  
    1964A      1.861263  1965A      1.862307  1966A      1.863069  
    1967A      1.864795  1968A      1.866275  1969A      1.866931  
    1970A      1.867736  1971A      1.869458  1972A      1.870503  
    1973A      1.871835  1974A      1.873967  1975A      1.875295  
    1976A      1.876384  1977A      1.876474  1978A      1.877476  
    1979A      1.878515  1980A      1.880132  1981A      1.880993  
    1982A      1.883227  1983A      1.884131  1984A      1.884646  
    1985A      1.887604  1986A      1.888615  1987A      1.890719  
    1988A      1.891430  1989A      1.892661  1990A      1.893375  
    1991A      1.893815  1992A      1.896324  1993A      1.897235  
    1994A      1.897413  1995A      1.898793  1996A      1.899834  
    1997A      1.900121  1998A      1.900562  1999A      1.903216  
    2000A      1.903685  2001A      1.904587  2002A      1.906303  
    2003A      1.907406  2004A      1.908261  2005A      1.909195  
    2006A      1.910467  2007A      1.912720  2008A      1.914477  
    2009A      1.915386  2010A      1.916928  2011A      1.917454  
    2012A      1.918928  2013A      1.919204  2014A      1.920622  
    2015A      1.921020  2016A      1.923721  2017A      1.923858  
    2018A      1.924867  2019A      1.926528  2020A      1.928191  
    2021A      1.929156  2022A      1.929692  2023A      1.930150  
    2024A      1.932483  2025A      1.933648  2026A      1.935737  
    2027A      1.936058  2028A      1.936254  2029A      1.937364  
    2030A      1.939420  2031A      1.940390  2032A      1.943078  
    2033A      1.943497  2034A      1.944283  2035A      1.946645  
    2036A      1.947726  2037A      1.948264  2038A      1.949935  
    2039A      1.952353  2040A      1.952747  2041A      1.954033  
    2042A      1.954324  2043A      1.955926  2044A      1.956103  
    2045A      1.957737  2046A      1.958659  2047A      1.959392  
    2048A      1.960259  2049A      1.961461  2050A      1.962253  
    2051A      1.963140  2052A      1.965094  2053A      1.965256  
    2054A      1.967503  2055A      1.968413  2056A      1.969313  
    2057A      1.971210  2058A      1.972701  2059A      1.974562  
    2060A      1.974796  2061A      1.976662  2062A      1.977328  
    2063A      1.977995  2064A      1.978872  2065A      1.980623  
    2066A      1.982302  2067A      1.982784  2068A      1.984628  
    2069A      1.985746  2070A      1.986734  2071A      1.986971  
    2072A      1.988720  2073A      1.989760  2074A      1.991402  
    2075A      1.992464  2076A      1.993590  2077A      1.994255  
    2078A      1.994784  2079A      1.994971  2080A      1.996900  
    2081A      1.997872  2082A      2.000353  2083A      2.001409  
    2084A      2.001998  2085A      2.003599  2086A      2.004322  
    2087A      2.006274  2088A      2.006997  2089A      2.008264  
    2090A      2.009308  2091A      2.009370  2092A      2.010529  
    2093A      2.011643  2094A      2.012807  2095A      2.015457  
    2096A      2.016759  2097A      2.017137  2098A      2.019171  
    2099A      2.020181  2100A      2.021666  2101A      2.022696  
    2102A      2.023006  2103A      2.024582  2104A      2.026221  
    2105A      2.026412  2106A      2.026705  2107A      2.027545  
    2108A      2.028505  2109A      2.029502  2110A      2.030746  
    2111A      2.032737  2112A      2.034326  2113A      2.035589  
    2114A      2.036291  2115A      2.038551  2116A      2.039817  
    2117A      2.040618  2118A      2.042246  2119A      2.042824  
    2120A      2.044321  2121A      2.045784  2122A      2.046536  
    2123A      2.048068  2124A      2.048463  2125A      2.048868  
    2126A      2.050113  2127A      2.050873  2128A      2.052230  
    2129A      2.052834  2130A      2.056689  2131A      2.057487  
    2132A      2.058407  2133A      2.059551  2134A      2.060156  
    2135A      2.061880  2136A      2.062674  2137A      2.063051  
    2138A      2.064708  2139A      2.066754  2140A      2.068139  
    2141A      2.068540  2142A      2.070807  2143A      2.071729  
    2144A      2.072471  2145A      2.074156  2146A      2.074314  
    2147A      2.075315  2148A      2.076929  2149A      2.078711  
    2150A      2.078937  2151A      2.079290  2152A      2.080527  
    2153A      2.081148  2154A      2.082944  2155A      2.083399  
    2156A      2.084878  2157A      2.085607  2158A      2.088226  
    2159A      2.089499  2160A      2.090770  2161A      2.091264  
    2162A      2.091868  2163A      2.093576  2164A      2.094790  
    2165A      2.095124  2166A      2.096494  2167A      2.098415  
    2168A      2.099647  2169A      2.100058  2170A      2.100859  
    2171A      2.101732  2172A      2.103056  2173A      2.104574  
    2174A      2.104755  2175A      2.106263  2176A      2.106600  
    2177A      2.107304  2178A      2.110469  2179A      2.111191  
    2180A      2.112473  2181A      2.112676  2182A      2.113255  
    2183A      2.115652  2184A      2.116324  2185A      2.116500  
    2186A      2.119170  2187A      2.119356  2188A      2.120119  
    2189A      2.121636  2190A      2.124329  2191A      2.124516  
    2192A      2.125283  2193A      2.126597  2194A      2.128158  
    2195A      2.128432  2196A      2.129989  2197A      2.131627  
    2198A      2.132083  2199A      2.132549  2200A      2.134270  
    2201A      2.136274  2202A      2.137685  2203A      2.137856  
    2204A      2.139483  2205A      2.140338  2206A      2.141479  
    2207A      2.142449  2208A      2.143459  2209A      2.144082  
    2210A      2.146161  2211A      2.147040  2212A      2.148505  
    2213A      2.148889  2214A      2.149600  2215A      2.150841  
    2216A      2.152149  2217A      2.152640  2218A      2.153987  
    2219A      2.155020  2220A      2.155203  2221A      2.156452  
    2222A      2.157472  2223A      2.159352  2224A      2.160445  
    2225A      2.161252  2226A      2.163627  2227A      2.164568  
    2228A      2.165032  2229A      2.167523  2230A      2.168616  
    2231A      2.169628  2232A      2.170342  2233A      2.170367  
    2234A      2.171568  2235A      2.174645  2236A      2.175468  
    2237A      2.176137  2238A      2.177664  2239A      2.178633  
    2240A      2.179211  2241A      2.180775  2242A      2.182638  
    2243A      2.183265  2244A      2.183319  2245A      2.185191  
    2246A      2.186619  2247A      2.187310  2248A      2.188807  
    2249A      2.190697  2250A      2.191766  2251A      2.192107  
    2252A      2.193628  2253A      2.195154  2254A      2.196148  
    2255A      2.196922  2256A      2.197996  2257A      2.198610  
    2258A      2.199526  2259A      2.200653  2260A      2.202212  
    2261A      2.203019  2262A      2.203250  2263A      2.204140  
    2264A      2.206158  2265A      2.206872  2266A      2.207710  
    2267A      2.207770  2268A      2.210041  2269A      2.210873  
    2270A      2.213654  2271A      2.214386  2272A      2.215656  
    2273A      2.217182  2274A      2.217566  2275A      2.219644  
    2276A      2.220356  2277A      2.221103  2278A      2.221331  
    2279A      2.222678  2280A      2.223824  2281A      2.224591  
    2282A      2.224827  2283A      2.225209  2284A      2.226869  
    2285A      2.228464  2286A      2.229308  2287A      2.230097  
    2288A      2.230786  2289A      2.231698  2290A      2.233838  
    2291A      2.235356  2292A      2.237388  2293A      2.237692  
    2294A      2.238899  2295A      2.239230  2296A      2.240945  
    2297A      2.242048  2298A      2.242931  2299A      2.243084  
    2300A      2.245029  2301A      2.246011  2302A      2.246960  
    2303A      2.247926  2304A      2.249224  2305A      2.251048  
    2306A      2.251776  2307A      2.253706  2308A      2.254819  
    2309A      2.255560  2310A      2.255915  2311A      2.256496  
    2312A      2.258033  2313A      2.258236  2314A      2.260275  
    2315A      2.262097  2316A      2.263359  2317A      2.263747  
    2318A      2.264371  2319A      2.265687  2320A      2.266187  
    2321A      2.266259  2322A      2.269481  2323A      2.269656  
    2324A      2.270687  2325A      2.271294  2326A      2.273446  
    2327A      2.273621  2328A      2.275380  2329A      2.276056  
    2330A      2.276748  2331A      2.278109  2332A      2.278600  
    2333A      2.280091  2334A      2.280527  2335A      2.282265  
    2336A      2.282945  2337A      2.284144  2338A      2.285630  
    2339A      2.287306  2340A      2.287734  2341A      2.290024  
    2342A      2.290984  2343A      2.293205  2344A      2.295078  
    2345A      2.295681  2346A      2.298453  2347A      2.300126  
    2348A      2.300875  2349A      2.303131  2350A      2.303316  
    2351A      2.303930  2352A      2.304378  2353A      2.304917  
    2354A      2.306906  2355A      2.307716  2356A      2.308481  
    2357A      2.309058  2358A      2.310997  2359A      2.312388  
    2360A      2.312827  2361A      2.313408  2362A      2.314743  
    2363A      2.315044  2364A      2.317454  2365A      2.318090  
    2366A      2.319126  2367A      2.319822  2368A      2.321552  
    2369A      2.323601  2370A      2.324742  2371A      2.324893  
    2372A      2.326588  2373A      2.328494  2374A      2.329659  
    2375A      2.330560  2376A      2.331563  2377A      2.332772  
    2378A      2.334399  2379A      2.335914  2380A      2.336703  
    2381A      2.337340  2382A      2.338645  2383A      2.340267  
    2384A      2.341374  2385A      2.342557  2386A      2.344329  
    2387A      2.345688  2388A      2.347144  2389A      2.348472  
    2390A      2.349391  2391A      2.350613  2392A      2.351080  
    2393A      2.353303  2394A      2.354555  2395A      2.355519  
    2396A      2.357098  2397A      2.357499  2398A      2.358641  
    2399A      2.359452  2400A      2.359595  2401A      2.360273  
    2402A      2.361264  2403A      2.361741  2404A      2.364490  
    2405A      2.365912  2406A      2.366644  2407A      2.367434  
    2408A      2.368571  2409A      2.368870  2410A      2.370247  
    2411A      2.371530  2412A      2.373547  2413A      2.374771  
    2414A      2.375221  2415A      2.376013  2416A      2.378467  
    2417A      2.378583  2418A      2.379665  2419A      2.381320  
    2420A      2.382654  2421A      2.382863  2422A      2.385843  
    2423A      2.386943  2424A      2.387931  2425A      2.388524  
    2426A      2.389808  2427A      2.390156  2428A      2.390742  
    2429A      2.392926  2430A      2.394444  2431A      2.395267  
    2432A      2.396046  2433A      2.396360  2434A      2.397665  
    2435A      2.398807  2436A      2.399969  2437A      2.404257  
    2438A      2.405094  2439A      2.406283  2440A      2.407010  
    2441A      2.409607  2442A      2.410998  2443A      2.412623  
    2444A      2.413989  2445A      2.415173  2446A      2.416404  
    2447A      2.418123  2448A      2.419142  2449A      2.420401  
    2450A      2.422869  2451A      2.423296  2452A      2.424072  
    2453A      2.424411  2454A      2.425311  2455A      2.426008  
    2456A      2.427983  2457A      2.429787  2458A      2.430587  
    2459A      2.431001  2460A      2.432445  2461A      2.433382  
    2462A      2.434002  2463A      2.434218  2464A      2.436062  
    2465A      2.437082  2466A      2.438207  2467A      2.439607  
    2468A      2.441409  2469A      2.442505  2470A      2.443374  
    2471A      2.444221  2472A      2.446723  2473A      2.448830  
    2474A      2.449332  2475A      2.451953  2476A      2.454013  
    2477A      2.455213  2478A      2.456436  2479A      2.456674  
    2480A      2.459863  2481A      2.460761  2482A      2.461421  
    2483A      2.462067  2484A      2.462431  2485A      2.463488  
    2486A      2.465551  2487A      2.467529  2488A      2.468965  
    2489A      2.469180  2490A      2.471639  2491A      2.472905  
    2492A      2.474963  2493A      2.477566  2494A      2.477831  
    2495A      2.478325  2496A      2.479477  2497A      2.480043  
    2498A      2.481014  2499A      2.481159  2500A      2.482992  
    2501A      2.483959  2502A      2.485568  2503A      2.486401  
    2504A      2.487391  2505A      2.489540  2506A      2.491471  
    2507A      2.493867  2508A      2.494667  2509A      2.496141  
    2510A      2.496416  2511A      2.497034  2512A      2.497894  
    2513A      2.500776  2514A      2.501928  2515A      2.502360  
    2516A      2.504931  2517A      2.505351  2518A      2.507522  
    2519A      2.508729  2520A      2.510267  2521A      2.512766  
    2522A      2.513653  2523A      2.514881  2524A      2.517943  
    2525A      2.518988  2526A      2.520082  2527A      2.521421  
    2528A      2.522928  2529A      2.523634  2530A      2.525897  
    2531A      2.526243  2532A      2.527491  2533A      2.529211  
    2534A      2.529521  2535A      2.530203  2536A      2.531070  
    2537A      2.533239  2538A      2.536653  2539A      2.537945  
    2540A      2.538254  2541A      2.539236  2542A      2.540682  
    2543A      2.541133  2544A      2.542738  2545A      2.543910  
    2546A      2.546153  2547A      2.546490  2548A      2.549034  
    2549A      2.550216  2550A      2.551423  2551A      2.551671  
    2552A      2.553246  2553A      2.555436  2554A      2.557608  
    2555A      2.559023  2556A      2.559622  2557A      2.562370  
    2558A      2.563042  2559A      2.563544  2560A      2.565855  
    2561A      2.566174  2562A      2.566968  2563A      2.567845  
    2564A      2.569451  2565A      2.570533  2566A      2.571163  
    2567A      2.573902  2568A      2.576584  2569A      2.577039  
    2570A      2.577509  2571A      2.580644  2572A      2.580890  
    2573A      2.583229  2574A      2.583678  2575A      2.584856  
    2576A      2.587098  2577A      2.588686  2578A      2.589695  
    2579A      2.590622  2580A      2.591111  2581A      2.591569  
    2582A      2.594158  2583A      2.594672  2584A      2.596324  
    2585A      2.599343  2586A      2.600498  2587A      2.601533  
    2588A      2.602007  2589A      2.602189  2590A      2.605949  
    2591A      2.606180  2592A      2.609855  2593A      2.610670  
    2594A      2.611019  2595A      2.614415  2596A      2.615216  
    2597A      2.616487  2598A      2.616862  2599A      2.618057  
    2600A      2.619767  2601A      2.621784  2602A      2.622639  
    2603A      2.625853  2604A      2.626449  2605A      2.628036  
    2606A      2.630461  2607A      2.631822  2608A      2.633504  
    2609A      2.635092  2610A      2.637467  2611A      2.639854  
    2612A      2.640610  2613A      2.642219  2614A      2.643179  
    2615A      2.643451  2616A      2.644842  2617A      2.646439  
    2618A      2.648702  2619A      2.649539  2620A      2.650014  
    2621A      2.651275  2622A      2.653124  2623A      2.655605  
    2624A      2.656546  2625A      2.659294  2626A      2.659977  
    2627A      2.660937  2628A      2.661816  2629A      2.662997  
    2630A      2.663967  2631A      2.667134  2632A      2.668654  
    2633A      2.670512  2634A      2.671309  2635A      2.673619  
    2636A      2.674736  2637A      2.677545  2638A      2.678251  
    2639A      2.678580  2640A      2.681873  2641A      2.685234  
[...]
    5654A     10.170035  5655A     10.171156  5656A     10.174115  
    5657A     10.175884  5658A     10.176128  5659A     10.180132  
    5660A     10.182431  5661A     10.185473  5662A     10.188182  
    5663A     10.189025  5664A     10.192553  5665A     10.193487  
    5666A     10.195648  5667A     10.198400  5668A     10.206174  
    5669A     10.206450  5670A     10.207597  5671A     10.215838  
    5672A     10.217999  5673A     10.219663  5674A     10.220063  
    5675A     10.222639  5676A     10.224133  5677A     10.227639  
    5678A     10.231409  5679A     10.234968  5680A     10.237278  
    5681A     10.243198  5682A     10.244415  5683A     10.251424  
    5684A     10.256686  5685A     10.258665  5686A     10.260590  
    5687A     10.268906  5688A     10.271300  5689A     10.272753  
    5690A     10.273062  5691A     10.274692  5692A     10.277398  
    5693A     10.278438  5694A     10.282586  5695A     10.285776  
    5696A     10.291594  5697A     10.293530  5698A     10.297355  
    5699A     10.298299  5700A     10.301681  5701A     10.302317  
    5702A     10.304906  5703A     10.308008  5704A     10.312470  
    5705A     10.313145  5706A     10.316108  5707A     10.320792  
    5708A     10.321399  5709A     10.325498  5710A     10.327539  
    5711A     10.333222  5712A     10.334978  5713A     10.338460  
    5714A     10.342503  5715A     10.346457  5716A     10.348833  
    5717A     10.351250  5718A     10.353251  5719A     10.355822  
    5720A     10.362206  5721A     10.365165  5722A     10.367159  
    5723A     10.368861  5724A     10.369138  5725A     10.372221  
    5726A     10.376240  5727A     10.377815  5728A     10.383886  
    5729A     10.385252  5730A     10.386345  5731A     10.391957  
    5732A     10.396940  5733A     10.405322  5734A     10.408062  
    5735A     10.409600  5736A     10.417170  5737A     10.421306  
    5738A     10.423735  5739A     10.424878  5740A     10.429127  
    5741A     10.431895  5742A     10.433872  5743A     10.439367  
    5744A     10.445044  5745A     10.448022  5746A     10.450771  
    5747A     10.453823  5748A     10.455617  5749A     10.459029  
    5750A     10.460275  5751A     10.461931  5752A     10.465359  
    5753A     10.468789  5754A     10.476076  5755A     10.481570  
    5756A     10.482037  5757A     10.484560  5758A     10.487675  
    5759A     10.489524  5760A     10.497825  5761A     10.499831  
    5762A     10.501727  5763A     10.502256  5764A     10.506745  
    5765A     10.512580  5766A     10.517685  5767A     10.520188  
    5768A     10.526874  5769A     10.537430  5770A     10.543364  
    5771A     10.547990  5772A     10.549614  5773A     10.558966  
    5774A     10.564996  5775A     10.573061  5776A     10.578363  
    5777A     10.579178  5778A     10.586631  5779A     10.590892  
    5780A     10.593464  5781A     10.595528  5782A     10.605109  
    5783A     10.606807  5784A     10.616774  5785A     10.626211  
    5786A     10.629946  5787A     10.632369  5788A     10.633754  
    5789A     10.644776  5790A     10.649264  5791A     10.651477  
    5792A     10.652561  5793A     10.657552  5794A     10.664699  
    5795A     10.674611  5796A     10.675425  5797A     10.678511  
    5798A     10.697338  5799A     10.697748  5800A     10.701201  
    5801A     10.703567  5802A     10.710585  5803A     10.715022  
    5804A     10.727125  5805A     10.736316  5806A     10.740509  
    5807A     10.761872  5808A     10.763555  5809A     10.769489  
    5810A     10.770473  5811A     10.776994  5812A     10.781720  
    5813A     10.785331  5814A     10.789073  5815A     10.797004  
    5816A     10.813195  5817A     10.817865  5818A     10.818529  
    5819A     10.823587  5820A     10.824297  5821A     10.826741  
    5822A     10.830799  5823A     10.834615  5824A     10.835361  
    5825A     10.840791  5826A     10.842379  5827A     10.851447  
    5828A     10.854498  5829A     10.857119  5830A     10.869142  
    5831A     10.870619  5832A     10.879206  5833A     10.881283  
    5834A     10.885320  5835A     10.886043  5836A     10.888590  
    5837A     10.892280  5838A     10.898642  5839A     10.899408  
    5840A     10.899514  5841A     10.904902  5842A     10.906335  
    5843A     10.912020  5844A     10.914486  5845A     10.923028  
    5846A     10.923700  5847A     10.929837  5848A     10.931807  
    5849A     10.943959  5850A     10.950141  5851A     10.952675  
    5852A     10.953341  5853A     10.956502  5854A     10.956864  
    5855A     10.960300  5856A     10.967137  5857A     10.975118  
    5858A     10.978008  5859A     10.986854  5860A     10.991557  
    5861A     10.994561  5862A     11.000183  5863A     11.001086  
    5864A     11.008917  5865A     11.010941  5866A     11.016873  
    5867A     11.017648  5868A     11.023344  5869A     11.028399  
    5870A     11.032119  5871A     11.034642  5872A     11.040804  
    5873A     11.043745  5874A     11.048725  5875A     11.049698  
    5876A     11.052769  5877A     11.058986  5878A     11.069730  
    5879A     11.073618  5880A     11.075609  5881A     11.079435  
    5882A     11.082522  5883A     11.087762  5884A     11.089887  
    5885A     11.093236  5886A     11.095652  5887A     11.099033  
    5888A     11.099230  5889A     11.106719  5890A     11.109850  
    5891A     11.112345  5892A     11.115143  5893A     11.119696  
    5894A     11.121214  5895A     11.125354  5896A     11.134559  
    5897A     11.135426  5898A     11.140752  5899A     11.143182  
    5900A     11.145327  5901A     11.156700  5902A     11.157692  
    5903A     11.158679  5904A     11.162553  5905A     11.164688  
    5906A     11.165672  5907A     11.167233  5908A     11.174024  
    5909A     11.175406  5910A     11.182074  5911A     11.183328  
    5912A     11.190321  5913A     11.199093  5914A     11.200001  
    5915A     11.200430  5916A     11.202129  5917A     11.204488  
    5918A     11.206117  5919A     11.217776  5920A     11.218217  
    5921A     11.222189  5922A     11.224683  5923A     11.225068  
    5924A     11.231975  5925A     11.237290  5926A     11.237696  
    5927A     11.243465  5928A     11.252336  5929A     11.253983  
    5930A     11.255690  5931A     11.257444  5932A     11.261382  
    5933A     11.270320  5934A     11.273794  5935A     11.275362  
    5936A     11.283959  5937A     11.287663  5938A     11.291003  
    5939A     11.296262  5940A     11.297649  5941A     11.301115  
    5942A     11.317542  5943A     11.321257  5944A     11.322617  
    5945A     11.324297  5946A     11.326714  5947A     11.331365  
    5948A     11.333285  5949A     11.342768  5950A     11.345191  
    5951A     11.348706  5952A     11.355920  5953A     11.356876  
    5954A     11.364237  5955A     11.388866  5956A     11.390151  
    5957A     11.391122  5958A     11.393612  5959A     11.393929  
    5960A     11.394995  5961A     11.399195  5962A     11.403741  
    5963A     11.414870  5964A     11.415438  5965A     11.424702  
    5966A     11.428938  5967A     11.432384  5968A     11.435885  
    5969A     11.437931  5970A     11.442664  5971A     11.448231  
    5972A     11.448444  5973A     11.449094  5974A     11.454008  
    5975A     11.457195  5976A     11.463383  5977A     11.466057  
    5978A     11.466856  5979A     11.468112  5980A     11.476413  
    5981A     11.477493  5982A     11.486337  5983A     11.490019  
    5984A     11.497437  5985A     11.501599  5986A     11.510167  
    5987A     11.516598  5988A     11.518897  5989A     11.521034  
    5990A     11.524194  5991A     11.526384  5992A     11.531751  
    5993A     11.539726  5994A     11.545766  5995A     11.547690  
    5996A     11.548416  5997A     11.548633  5998A     11.550716  
    5999A     11.553105  6000A     11.556212  6001A     11.565235  
    6002A     11.571515  6003A     11.585849  6004A     11.590145  
    6005A     11.597765  6006A     11.600056  6007A     11.604893  
    6008A     11.606945  6009A     11.612668  6010A     11.618250  
    6011A     11.626072  6012A     11.629008  6013A     11.635120  
    6014A     11.639928  6015A     11.646991  6016A     11.648356  
    6017A     11.656447  6018A     11.658614  6019A     11.667960  
    6020A     11.669642  6021A     11.671022  6022A     11.676294  
    6023A     11.682084  6024A     11.685063  6025A     11.689418  
    6026A     11.693096  6027A     11.698872  6028A     11.700691  
    6029A     11.701894  6030A     11.709386  6031A     11.714670  
    6032A     11.715587  6033A     11.718674  6034A     11.721379  
    6035A     11.725162  6036A     11.729840  6037A     11.734512  
    6038A     11.750018  6039A     11.752132  6040A     11.759762  
    6041A     11.762025  6042A     11.775038  6043A     11.780075  
    6044A     11.784838  6045A     11.786124  6046A     11.795146  
    6047A     11.797586  6048A     11.804060  6049A     11.809061  
    6050A     11.813617  6051A     11.818322  6052A     11.819895  
    6053A     11.827984  6054A     11.831745  6055A     11.834911  
    6056A     11.842721  6057A     11.845156  6058A     11.847655  
    6059A     11.861534  6060A     11.872064  6061A     11.877296  
    6062A     11.899290  6063A     11.901938  6064A     11.906996  
    6065A     11.910855  6066A     11.933517  6067A     11.936389  
    6068A     11.937011  6069A     11.944031  6070A     11.953166  
    6071A     11.957138  6072A     11.961035  6073A     11.963604  
    6074A     11.972594  6075A     11.980048  6076A     11.984874  
    6077A     11.985971  6078A     11.994796  6079A     12.002703  
    6080A     12.008832  6081A     12.013124  6082A     12.020027  
    6083A     12.027693  6084A     12.030752  6085A     12.036733  
    6086A     12.039455  6087A     12.043154  6088A     12.045910  
    6089A     12.048582  6090A     12.077129  6091A     12.084190  
    6092A     12.088937  6093A     12.090455  6094A     12.099077  
    6095A     12.119370  6096A     12.124272  6097A     12.132366  
    6098A     12.136068  6099A     12.142358  6100A     12.149833  
    6101A     12.162473  6102A     12.168731  6103A     12.171253  
    6104A     12.181052  6105A     12.184441  6106A     12.187842  
    6107A     12.194723  6108A     12.199431  6109A     12.201376  
    6110A     12.210073  6111A     12.228757  6112A     12.229552  
    6113A     12.237601  6114A     12.238937  6115A     12.240936  
    6116A     12.242515  6117A     12.245321  6118A     12.249016  
    6119A     12.255763  6120A     12.256673  6121A     12.261047  
    6122A     12.271608  6123A     12.273362  6124A     12.282031  
    6125A     12.284938  6126A     12.288155  6127A     12.296309  
    6128A     12.297107  6129A     12.300010  6130A     12.300509  
    6131A     12.301006  6132A     12.316568  6133A     12.317345  
    6134A     12.319272  6135A     12.324793  6136A     12.336518  
    6137A     12.343692  6138A     12.343914  6139A     12.350879  
    6140A     12.352029  6141A     12.355766  6142A     12.356749  
    6143A     12.358461  6144A     12.369794  6145A     12.376768  
    6146A     12.382739  6147A     12.387054  6148A     12.394855  
    6149A     12.409117  6150A     12.411397  6151A     12.412101  
    6152A     12.414155  6153A     12.415200  6154A     12.422235  
    6155A     12.423955  6156A     12.437721  6157A     12.438885  
    6158A     12.440158  6159A     12.447514  6160A     12.455313  
    6161A     12.475936  6162A     12.477016  6163A     12.501273  
    6164A     12.505656  6165A     12.519570  6166A     12.527417  
    6167A     12.533460  6168A     12.555184  6169A     12.559392  
    6170A     12.566057  6171A     12.594683  6172A     12.607200  
    6173A     12.608930  6174A     12.618200  6175A     12.627134  
    6176A     12.631891  6177A     12.679943  6178A     12.680831  
    6179A     12.688046  6180A     12.706400  6181A     12.719153  
    6182A     12.722206  6183A     12.738100  6184A     12.740873  
    6185A     12.749997  6186A     12.750413  6187A     12.765870  
    6188A     12.781594  6189A     12.802762  6190A     12.806432  
    6191A     12.808770  6192A     12.817568  6193A     12.825317  
    6194A     12.827108  6195A     12.827596  6196A     12.837558  
    6197A     12.848414  6198A     12.854107  6199A     12.856733  
    6200A     12.867861  6201A     12.868916  6202A     12.869169  
    6203A     12.887240  6204A     12.889980  6205A     12.893263  
    6206A     12.896884  6207A     12.903242  6208A     12.917817  
    6209A     12.920689  6210A     12.939537  6211A     12.962990  
    6212A     12.963361  6213A     12.974391  6214A     12.975385  
    6215A     12.982014  6216A     12.984721  6217A     12.997637  
    6218A     12.998052  6219A     12.999891  6220A     13.001653  
    6221A     13.002911  6222A     13.011021  6223A     13.018453  
    6224A     13.021612  6225A     13.029762  6226A     13.042653  
    6227A     13.046016  6228A     13.051772  6229A     13.054584  
    6230A     13.058911  6231A     13.077645  6232A     13.080279  
    6233A     13.082731  6234A     13.096609  6235A     13.108031  
    6236A     13.111594  6237A     13.118962  6238A     13.133336  
    6239A     13.137097  6240A     13.141085  6241A     13.151412  
    6242A     13.154486  6243A     13.165829  6244A     13.177361  
    6245A     13.181340  6246A     13.188927  6247A     13.203347  
    6248A     13.207615  6249A     13.208063  6250A     13.208946  
    6251A     13.212495  6252A     13.242133  6253A     13.248563  
    6254A     13.262390  6255A     13.262591  6256A     13.283802  
    6257A     13.285816  6258A     13.287255  6259A     13.304206  
    6260A     13.324535  6261A     13.347357  6262A     13.352529  
    6263A     13.354763  6264A     13.362028  6265A     13.373915  
    6266A     13.375922  6267A     13.381328  6268A     13.385117  
    6269A     13.390358  6270A     13.392809  6271A     13.400892  
    6272A     13.403113  6273A     13.404517  6274A     13.421083  
    6275A     13.425311  6276A     13.428682  6277A     13.437806  
    6278A     13.445153  6279A     13.448176  6280A     13.451227  
    6281A     13.454754  6282A     13.458965  6283A     13.461635  
    6284A     13.464763  6285A     13.467774  6286A     13.472194  
    6287A     13.476376  6288A     13.481235  6289A     13.492794  
    6290A     13.494150  6291A     13.501115  6292A     13.517055  
    6293A     13.521446  6294A     13.524156  6295A     13.526029  
    6296A     13.530758  6297A     13.536188  6298A     13.544474  
    6299A     13.551075  6300A     13.559175  6301A     13.560904  
    6302A     13.566574  6303A     13.567449  6304A     13.576149  
    6305A     13.592079  6306A     13.603744  6307A     13.609150  
    6308A     13.611814  6309A     13.612359  6310A     13.625436  
    6311A     13.629083  6312A     13.635981  6313A     13.661062  
    6314A     13.661952  6315A     13.666552  6316A     13.675148  
    6317A     13.692723  6318A     13.699538  6319A     13.707500  
    6320A     13.725156  6321A     13.766926  6322A     13.770287  
    6323A     13.774940  6324A     13.787338  6325A     13.791458  
    6326A     13.793511  6327A     13.808636  6328A     13.815857  
    6329A     13.855243  6330A     13.875750  6331A     13.894521  
    6332A     13.911987  6333A     13.919073  6334A     13.921034  
    6335A     13.929745  6336A     13.936775  6337A     13.950416  
    6338A     13.967948  6339A     13.988623  6340A     13.991232  
    6341A     14.032877  6342A     14.055564  6343A     14.057054  
    6344A     14.058063  6345A     14.070764  6346A     14.073358  
    6347A     14.075408  6348A     14.085065  6349A     14.119078  
    6350A     14.153698  6351A     14.158980  6352A     14.159264  
    6353A     14.205384  6354A     14.241844  6355A     14.274811  
    6356A     14.289137  6357A     14.303378  6358A     14.375510  
    6359A     14.391308  6360A     14.405391  6361A     14.461338  
    6362A     14.484667  6363A     14.528317  6364A     14.539368  
    6365A     14.571605  6366A     14.596291  6367A     14.628986  
    6368A     14.630696  6369A     14.635324  6370A     14.641369  
    6371A     14.652267  6372A     14.665800  6373A     14.672744  
    6374A     14.674355  6375A     14.697502  6376A     14.702067  
    6377A     14.718867  6378A     14.736945  6379A     14.803974  
    6380A     14.878271  6381A     14.902682  6382A     14.922281  
    6383A     14.958749  6384A     14.959473  6385A     15.001341  
    6386A     15.031407  6387A     15.061932  6388A     15.065118  
    6389A     15.073867  6390A     15.124803  6391A     15.127272  
    6392A     15.139503  6393A     15.152149  6394A     15.180512  
    6395A     15.184405  6396A     15.220767  6397A     15.226011  
    6398A     15.234174  6399A     15.254439  6400A     15.304575  
    6401A     15.315665  6402A     15.338047  6403A     15.372426  
    6404A     15.404732  6405A     15.410971  6406A     15.421956  
    6407A     15.434431  6408A     15.448786  6409A     15.454024  
    6410A     15.490429  6411A     15.539303  6412A     15.564425  
    6413A     15.569916  6414A     15.598820  6415A     15.604404  
    6416A     15.638362  6417A     17.434530  6418A     17.521484  
    6419A     17.544339  6420A     17.694488  6421A     26.594398  
    6422A     26.721212  6423A     26.808159  6424A     26.990189  
    6425A     27.001157  6426A     27.008692  6427A     27.090342  
    6428A     27.146419  6429A     27.186700  6430A     27.277591  
    6431A     27.421602  6432A     27.471640  6433A     27.751330  
    6434A     28.107667  6435A     28.158317  6436A     28.245811  
    6437A     28.345278  6438A     28.408509  6439A     28.442845  
    6440A     28.473479  6441A     28.479186  6442A     28.485678  
    6443A     28.546600  6444A     28.676636  6445A     28.718807  
    6446A     28.984863  6447A     29.044769  6448A     35.501967  
    6449A     35.810903  6450A     35.984274  6451A     36.184454  
    6452A     36.186820  6453A     36.375687  6454A     36.417014  
    6455A     36.466167  6456A     43.967539  6457A     44.086042  
    6458A     44.465339  6459A     44.600735  6460A     44.665969  
    6461A     44.719433  6462A     44.729503  6463A     44.808425  
    6464A     44.864641  6465A     45.059155  6466A     45.123604  
    6467A     45.248434  6468A     46.046643  6469A     46.113633  
    6470A     46.328826  6471A     46.629404  

    Final Occupation by Irrep:
              A 
    DOCC [   199 ]

  Energy converged.

  @DF-RHF Final Energy: -2687.03262250617627

   => Energetics <=

    Nuclear Repulsion Energy =           6201.5436595934152137
    One-Electron Energy =              -16035.8168277604891045
    Two-Electron Energy =                7147.2405456608976237
    Total Energy =                      -2687.0326225061762671



Properties will be evaluated at   0.000000,   0.000000,   0.000000 Bohr

Properties computed using the SCF density matrix

  Nuclear Dipole Moment: (a.u.)
     X:   -36.4282      Y:   -12.7853      Z:    -6.2450

  Electronic Dipole Moment: (a.u.)
     X:    35.5016      Y:    11.2990      Z:     6.6914

  Dipole Moment: (a.u.)
     X:    -0.9266      Y:    -1.4863      Z:     0.4464     Total:     1.8075

  Dipole Moment: (Debye)
     X:    -2.3552      Y:    -3.7778      Z:     1.1346     Total:     4.5941


*** tstop() called on hex15 at Mon Mar 12 23:29:28 2018
Module time:
	user time   =  161646.73 seconds =    2694.11 minutes
	system time =   14286.44 seconds =     238.11 minutes
	total time  =     161521 seconds =    2692.02 minutes
Total time:
	user time   =  161646.73 seconds =    2694.11 minutes
	system time =   14286.44 seconds =     238.11 minutes
	total time  =     161521 seconds =    2692.02 minutes

*** Psi4 exiting successfully. Buy a developer a beer!
