
    -----------------------------------------------------------------------
          Psi4: An Open-Source Ab Initio Electronic Structure Package
                               Psi4 1.2a1.dev875 

                         Git: Rev {symm_JK} 0ea9481 dirty


    R. M. Parrish, L. A. Burns, D. G. A. Smith, A. C. Simmonett,
    A. E. DePrince III, E. G. Hohenstein, U. Bozkaya, A. Yu. Sokolov,
    R. Di Remigio, R. M. Richard, J. F. Gonthier, A. M. James,
    H. R. McAlexander, A. Kumar, M. Saitow, X. Wang, B. P. Pritchard,
    P. Verma, H. F. Schaefer III, K. Patkowski, R. A. King, E. F. Valeev,
    F. A. Evangelista, J. M. Turney, T. D. Crawford, and C. D. Sherrill,
    J. Chem. Theory Comput. 13(7) pp 3185--3197 (2017).
    (doi: 10.1021/acs.jctc.7b00174)

    -----------------------------------------------------------------------


    Psi4 started on: Monday, 05 March 2018 11:00PM

    Process ID:   3886
    PSIDATADIR: /theoryfs2/ds/schieber/Gits/mspsi4/objdir3/stage/usr/local/psi4/share/psi4
    Memory:     500.0 MiB
    Threads:    6
    
  ==> Input File <==

--------------------------------------------------------------------------
memory 60 Gb

molecule protein_30 {
0 1
 N   18.626  30.444   6.627
 C   17.853  29.516   5.837
 C   16.945  30.292   4.886
 O   15.843  30.678   5.237
 C   17.047  28.642   6.811
 C   16.316  27.513   6.146
 O   16.236  27.458   4.905
 O   15.762  26.696   6.882
 N   17.407  27.054  -1.437
 C   17.227  26.751  -0.026
 C   18.555  26.446   0.653
 O   19.003  25.309   0.692
 C   16.258  25.572   0.084
 C   15.759  25.336   1.493
 O   16.399  25.780   2.453
 O   14.731  24.675   1.645
 H   18.180  30.990   7.295
 H   18.510  28.835   5.249
 H   16.336  29.276   7.377
 H   17.778  28.186   7.516
 H   15.845  26.702   7.843
 H   17.860  26.421  -2.023
 H   16.724  27.595   0.500
 H   16.724  24.663  -0.337
 H   15.363  25.845  -0.519
 H   16.737  25.171   3.109
 H   19.646  30.419   6.619
 H   17.295  30.415   3.850
 H   16.947  27.858  -1.864
 H   19.060  27.284   1.155
}

set {
basis cc-pvqz
scf_type df
guess sad
DF_SCF_TYPE DFJK
}

energy('HF')
--------------------------------------------------------------------------

  Memory set to  55.879 GiB by Python driver.

*** tstart() called on hex15
*** at Mon Mar  5 23:00:20 2018

   => Loading Basis Set <=

    Name: CC-PVQZ
    Role: ORBITAL
    Keyword: BASIS
    atoms 1, 9                   entry N          line   289 file /theoryfs2/ds/schieber/Gits/mspsi4/objdir3/stage/usr/local/psi4/share/psi4/basis/cc-pvqz.gbs 
    atoms 2-3, 5-6, 10-11, 13-14 entry C          line   239 file /theoryfs2/ds/schieber/Gits/mspsi4/objdir3/stage/usr/local/psi4/share/psi4/basis/cc-pvqz.gbs 
    atoms 4, 7-8, 12, 15-16      entry O          line   339 file /theoryfs2/ds/schieber/Gits/mspsi4/objdir3/stage/usr/local/psi4/share/psi4/basis/cc-pvqz.gbs 
    atoms 17-30                  entry H          line    22 file /theoryfs2/ds/schieber/Gits/mspsi4/objdir3/stage/usr/local/psi4/share/psi4/basis/cc-pvqz.gbs 


         ---------------------------------------------------------
                                   SCF
            by Justin Turney, Rob Parrish, Andy Simmonett
                             and Daniel Smith
                              RHF Reference
                        6 Threads,  57220 MiB Core
         ---------------------------------------------------------

  ==> Geometry <==

    Molecular point group: c1
    Full point group: C1

    Geometry (in Angstrom), charge = 0, multiplicity = 1:

       Center              X                  Y                   Z               Mass       
    ------------   -----------------  -----------------  -----------------  -----------------
           N          1.759981620253     3.071942570653     3.302034477710    14.003074004780
           C          0.986981620253     2.143942570653     2.512034477710    12.000000000000
           C          0.078981620253     2.919942570653     1.561034477710    12.000000000000
           O         -1.023018379747     3.305942570653     1.912034477710    15.994914619560
           C          0.180981620253     1.269942570653     3.486034477710    12.000000000000
           C         -0.550018379747     0.140942570653     2.821034477710    12.000000000000
           O         -0.630018379747     0.085942570653     1.580034477710    15.994914619560
           O         -1.104018379747    -0.676057429347     3.557034477710    15.994914619560
           N          0.540981620253    -0.318057429347    -4.761965522290    14.003074004780
           C          0.360981620253    -0.621057429347    -3.350965522290    12.000000000000
           C          1.688981620253    -0.926057429347    -2.671965522290    12.000000000000
           O          2.136981620253    -2.063057429347    -2.632965522290    15.994914619560
           C         -0.608018379747    -1.800057429347    -3.240965522290    12.000000000000
           C         -1.107018379747    -2.036057429347    -1.831965522290    12.000000000000
           O         -0.467018379747    -1.592057429347    -0.871965522290    15.994914619560
           O         -2.135018379747    -2.697057429347    -1.679965522290    15.994914619560
           H          1.313981620253     3.617942570653     3.970034477710     1.007825032070
           H          1.643981620253     1.462942570653     1.924034477710     1.007825032070
           H         -0.530018379747     1.903942570653     4.052034477710     1.007825032070
           H          0.911981620253     0.813942570653     4.191034477710     1.007825032070
           H         -1.021018379747    -0.670057429347     4.518034477710     1.007825032070
           H          0.993981620253    -0.951057429347    -5.347965522290     1.007825032070
           H         -0.142018379747     0.222942570653    -2.824965522290     1.007825032070
           H         -0.142018379747    -2.709057429347    -3.661965522290     1.007825032070
           H         -1.503018379747    -1.527057429347    -3.843965522290     1.007825032070
           H         -0.129018379747    -2.201057429347    -0.215965522290     1.007825032070
           H          2.779981620253     3.046942570653     3.294034477710     1.007825032070
           H          0.428981620253     3.042942570653     0.525034477710     1.007825032070
           H          0.080981620253     0.485942570653    -5.188965522290     1.007825032070
           H          2.193981620253    -0.088057429347    -2.169965522290     1.007825032070

  Running in c1 symmetry.

  Rotational constants: A =      0.02246  B =      0.00667  C =      0.00592 [cm^-1]
  Rotational constants: A =    673.47508  B =    199.82875  C =    177.40117 [MHz]
  Nuclear repulsion = 1089.601628930780862

  Charge       = 0
  Multiplicity = 1
  Electrons    = 124
  Nalpha       = 62
  Nbeta        = 62

  ==> Algorithm <==

  SCF Algorithm Type is DF.
  DIIS enabled.
  MOM disabled.
  Fractional occupation disabled.
  Guess Type is SAD.
  Energy threshold   = 1.00e-06
  Density threshold  = 1.00e-06
  Integral threshold = 0.00e+00

  ==> Primary Basis <==

  Basis Set: CC-PVQZ
    Blend: CC-PVQZ
    Number of shells: 380
    Number of basis function: 1300
    Number of Cartesian functions: 1610
    Spherical Harmonics?: true
    Max angular momentum: 4

   => Loading Basis Set <=

    Name: (CC-PVQZ AUX)
    Role: JKFIT
    Keyword: DF_BASIS_SCF
    atoms 1, 9                   entry N          line   195 file /theoryfs2/ds/schieber/Gits/mspsi4/objdir3/stage/usr/local/psi4/share/psi4/basis/cc-pvqz-jkfit.gbs 
    atoms 2-3, 5-6, 10-11, 13-14 entry C          line   137 file /theoryfs2/ds/schieber/Gits/mspsi4/objdir3/stage/usr/local/psi4/share/psi4/basis/cc-pvqz-jkfit.gbs 
    atoms 4, 7-8, 12, 15-16      entry O          line   253 file /theoryfs2/ds/schieber/Gits/mspsi4/objdir3/stage/usr/local/psi4/share/psi4/basis/cc-pvqz-jkfit.gbs 
    atoms 17-30                  entry H          line    51 file /theoryfs2/ds/schieber/Gits/mspsi4/objdir3/stage/usr/local/psi4/share/psi4/basis/cc-pvqz-jkfit.gbs 

  ==> Pre-Iterations <==

   -------------------------------------------------------
    Irrep   Nso     Nmo     Nalpha   Nbeta   Ndocc  Nsocc
   -------------------------------------------------------
     A       1300    1300       0       0       0       0
   -------------------------------------------------------
    Total    1300    1300      62      62      62       0
   -------------------------------------------------------

  ==> Integral Setup <==

  ==> DFJK: Density-Fitted J/K Matrices <==

    J tasked:                  Yes
    K tasked:                  Yes
    wK tasked:                  No
    OpenMP threads:              6
    Integrals threads:           6
    Memory (MB):             42915
    Algorithm:                Core
    Integral Cache:           NONE
    Schwarz Cutoff:          1E-12
    Fitting Condition:       1E-12

   => Auxiliary Basis Set <=

  Basis Set: (CC-PVQZ AUX)
    Blend: CC-PVQZ-JKFIT
    Number of shells: 630
    Number of basis function: 2410
    Number of Cartesian functions: 3196
    Spherical Harmonics?: true
    Max angular momentum: 5

  Minimum eigenvalue in the overlap matrix is 5.0393832641E-05.
  Using Symmetric Orthogonalization.

  SCF Guess: Superposition of Atomic Densities via on-the-fly atomic UHF.

  ==> Iterations <==

                           Total Energy        Delta E     RMS |[F,P]|

   @DF-RHF iter   0:  -875.95610624984010   -8.75956e+02   1.47417e-02 
   @DF-RHF iter   1:  -868.89128454877061    7.06482e+00   1.93883e-03 
   @DF-RHF iter   2:  -869.25642768441878   -3.65143e-01   1.46445e-03 DIIS
   @DF-RHF iter   3:  -869.47027265971258   -2.13845e-01   2.79759e-04 DIIS
   @DF-RHF iter   4:  -869.48781652491721   -1.75439e-02   9.40899e-05 DIIS
   @DF-RHF iter   5:  -869.49021345424353   -2.39693e-03   4.23279e-05 DIIS
   @DF-RHF iter   6:  -869.49077277628089   -5.59322e-04   1.81149e-05 DIIS
   @DF-RHF iter   7:  -869.49091621856007   -1.43442e-04   8.28871e-06 DIIS
   @DF-RHF iter   8:  -869.49094666294650   -3.04444e-05   3.31734e-06 DIIS
   @DF-RHF iter   9:  -869.49095292449545   -6.26155e-06   1.38796e-06 DIIS
   @DF-RHF iter  10:  -869.49095421110280   -1.28661e-06   6.55022e-07 DIIS
   @DF-RHF iter  11:  -869.49095456050838   -3.49406e-07   2.85791e-07 DIIS

  ==> Post-Iterations <==

    Orbital Energies (a.u.)
    -----------------------

    Doubly Occupied:                                                      

       1A    -20.638065     2A    -20.591440     3A    -20.560798  
       4A    -20.555876     5A    -20.530717     6A    -20.506468  
       7A    -15.555429     8A    -15.545155     9A    -11.388638  
      10A    -11.357872    11A    -11.336888    12A    -11.334120  
      13A    -11.294343    14A    -11.282809    15A    -11.260812  
      16A    -11.231219    17A     -1.522058    18A     -1.488732  
      19A     -1.390660    20A     -1.388473    21A     -1.348645  
      22A     -1.324686    23A     -1.212068    24A     -1.196389  
      25A     -1.052268    26A     -1.036703    27A     -0.946711  
      28A     -0.929574    29A     -0.902126    30A     -0.863836  
      31A     -0.799823    32A     -0.788087    33A     -0.745031  
      34A     -0.724970    35A     -0.714409    36A     -0.688431  
      37A     -0.686111    38A     -0.685754    39A     -0.679755  
      40A     -0.656657    41A     -0.656033    42A     -0.646311  
      43A     -0.639715    44A     -0.627750    45A     -0.622928  
      46A     -0.615843    47A     -0.570659    48A     -0.557553  
      49A     -0.552955    50A     -0.529528    51A     -0.523772  
      52A     -0.514524    53A     -0.512468    54A     -0.498292  
      55A     -0.467646    56A     -0.456915    57A     -0.449218  
      58A     -0.441844    59A     -0.439916    60A     -0.428603  
      61A     -0.384459    62A     -0.372175  

    Virtual:                                                              

      63A      0.079703    64A      0.089317    65A      0.099566  
      66A      0.106822    67A      0.123711    68A      0.131239  
      69A      0.140386    70A      0.143372    71A      0.146986  
      72A      0.153044    73A      0.158435    74A      0.166154  
      75A      0.172608    76A      0.183101    77A      0.195326  
      78A      0.201694    79A      0.204462    80A      0.219145  
      81A      0.234466    82A      0.241476    83A      0.261471  
      84A      0.272211    85A      0.283197    86A      0.290751  
      87A      0.295003    88A      0.309391    89A      0.319071  
      90A      0.322663    91A      0.325997    92A      0.332806  
      93A      0.340522    94A      0.347505    95A      0.355882  
      96A      0.360392    97A      0.368500    98A      0.374746  
      99A      0.378284   100A      0.382728   101A      0.397780  
     102A      0.404915   103A      0.409569   104A      0.419769  
     105A      0.429499   106A      0.433947   107A      0.438492  
     108A      0.444346   109A      0.444965   110A      0.454819  
     111A      0.458726   112A      0.460766   113A      0.468233  
     114A      0.475325   115A      0.477216   116A      0.480921  
     117A      0.486711   118A      0.492558   119A      0.510405  
     120A      0.512252   121A      0.512993   122A      0.515403  
     123A      0.520257   124A      0.526580   125A      0.538426  
     126A      0.543437   127A      0.547027   128A      0.550739  
     129A      0.553756   130A      0.558087   131A      0.564515  
     132A      0.571135   133A      0.575990   134A      0.583752  
     135A      0.586788   136A      0.590599   137A      0.595899  
     138A      0.603595   139A      0.615915   140A      0.618791  
     141A      0.629389   142A      0.631658   143A      0.644705  
     144A      0.645169   145A      0.657044   146A      0.659357  
     147A      0.664227   148A      0.669879   149A      0.687026  
     150A      0.693368   151A      0.704031   152A      0.707740  
     153A      0.713126   154A      0.719277   155A      0.730408  
     156A      0.740585   157A      0.742802   158A      0.745168  
     159A      0.755220   160A      0.759985   161A      0.762284  
     162A      0.769598   163A      0.772853   164A      0.791172  
     165A      0.792343   166A      0.798538   167A      0.816277  
     168A      0.820027   169A      0.828516   170A      0.833498  
     171A      0.840423   172A      0.848584   173A      0.865801  
     174A      0.868532   175A      0.876408   176A      0.885990  
     177A      0.891669   178A      0.900881   179A      0.912706  
     180A      0.915037   181A      0.918440   182A      0.925135  
     183A      0.929060   184A      0.932733   185A      0.942533  
     186A      0.945773   187A      0.959745   188A      0.962097  
     189A      0.969659   190A      0.974461   191A      0.984619  
     192A      0.987234   193A      0.992536   194A      1.000229  
     195A      1.005721   196A      1.011395   197A      1.020107  
     198A      1.027808   199A      1.033634   200A      1.035863  
     201A      1.042587   202A      1.048935   203A      1.052119  
     204A      1.055726   205A      1.058112   206A      1.063428  
     207A      1.072342   208A      1.081099   209A      1.090720  
     210A      1.098903   211A      1.100983   212A      1.105482  
     213A      1.117144   214A      1.120618   215A      1.127563  
     216A      1.131466   217A      1.134885   218A      1.142272  
     219A      1.147285   220A      1.154946   221A      1.157916  
     222A      1.162580   223A      1.169463   224A      1.174447  
     225A      1.183044   226A      1.186153   227A      1.190796  
     228A      1.202414   229A      1.208530   230A      1.215905  
     231A      1.224044   232A      1.237105   233A      1.239470  
     234A      1.247369   235A      1.250764   236A      1.255016  
     237A      1.267529   238A      1.271554   239A      1.287160  
     240A      1.289860   241A      1.294306   242A      1.303306  
     243A      1.305487   244A      1.313792   245A      1.329330  
     246A      1.336378   247A      1.349368   248A      1.356519  
     249A      1.364014   250A      1.371093   251A      1.383697  
     252A      1.389292   253A      1.394330   254A      1.404355  
     255A      1.413379   256A      1.419021   257A      1.449191  
     258A      1.456547   259A      1.460031   260A      1.471369  
     261A      1.487812   262A      1.496016   263A      1.514203  
     264A      1.524189   265A      1.533679   266A      1.542463  
     267A      1.551445   268A      1.570470   269A      1.584088  
     270A      1.584535   271A      1.597858   272A      1.603917  
     273A      1.614728   274A      1.620709   275A      1.622048  
     276A      1.651493   277A      1.654322   278A      1.659034  
     279A      1.669424   280A      1.679979   281A      1.683460  
     282A      1.706427   283A      1.709929   284A      1.715355  
     285A      1.728723   286A      1.739840   287A      1.748394  
     288A      1.757803   289A      1.759828   290A      1.766089  
     291A      1.773420   292A      1.783302   293A      1.792696  
     294A      1.797137   295A      1.804454   296A      1.808590  
     297A      1.824038   298A      1.826342   299A      1.836909  
     300A      1.843449   301A      1.848550   302A      1.857987  
     303A      1.875241   304A      1.877694   305A      1.889655  
     306A      1.896151   307A      1.898945   308A      1.906941  
     309A      1.921777   310A      1.935117   311A      1.935513  
     312A      1.945049   313A      1.953319   314A      1.959979  
     315A      1.970974   316A      1.980968   317A      1.986862  
     318A      1.991666   319A      2.005314   320A      2.011381  
     321A      2.029628   322A      2.036437   323A      2.038317  
     324A      2.042894   325A      2.046402   326A      2.061274  
     327A      2.066630   328A      2.075644   329A      2.077463  
     330A      2.084878   331A      2.103092   332A      2.104701  
     333A      2.111686   334A      2.120811   335A      2.129279  
     336A      2.137901   337A      2.146239   338A      2.148735  
     339A      2.157323   340A      2.158300   341A      2.165463  
     342A      2.168638   343A      2.176468   344A      2.183900  
     345A      2.186928   346A      2.190788   347A      2.205255  
     348A      2.208786   349A      2.216942   350A      2.221470  
     351A      2.232680   352A      2.236600   353A      2.247735  
     354A      2.255650   355A      2.265311   356A      2.272316  
     357A      2.279181   358A      2.288000   359A      2.294419  
     360A      2.300479   361A      2.304594   362A      2.311762  
     363A      2.321362   364A      2.340608   365A      2.341324  
     366A      2.346093   367A      2.353668   368A      2.359287  
     369A      2.362148   370A      2.362567   371A      2.368417  
     372A      2.379586   373A      2.386524   374A      2.392657  
     375A      2.399107   376A      2.403053   377A      2.414177  
     378A      2.422383   379A      2.426553   380A      2.434560  
     381A      2.444414   382A      2.445378   383A      2.453616  
     384A      2.466645   385A      2.468239   386A      2.472158  
     387A      2.478032   388A      2.480834   389A      2.494841  
     390A      2.499638   391A      2.503470   392A      2.505517  
     393A      2.515735   394A      2.530459   395A      2.534783  
     396A      2.540905   397A      2.548465   398A      2.553815  
     399A      2.561912   400A      2.571305   401A      2.577606  
     402A      2.584586   403A      2.587317   404A      2.589372  
     405A      2.593296   406A      2.596119   407A      2.607547  
     408A      2.612679   409A      2.615075   410A      2.623204  
     411A      2.633286   412A      2.636906   413A      2.642278  
     414A      2.649767   415A      2.653965   416A      2.662250  
     417A      2.677853   418A      2.685424   419A      2.696565  
     420A      2.701881   421A      2.708457   422A      2.725991  
     423A      2.729998   424A      2.742164   425A      2.743645  
     426A      2.755741   427A      2.760271   428A      2.763982  
     429A      2.768577   430A      2.769036   431A      2.777529  
     432A      2.787820   433A      2.794905   434A      2.803933  
     435A      2.811622   436A      2.818703   437A      2.835054  
     438A      2.843420   439A      2.851312   440A      2.860855  
     441A      2.863273   442A      2.864790   443A      2.870572  
     444A      2.874681   445A      2.891752   446A      2.893522  
     447A      2.899871   448A      2.907005   449A      2.917290  
     450A      2.935782   451A      2.938973   452A      2.942419  
     453A      2.944118   454A      2.955621   455A      2.961031  
     456A      2.983947   457A      2.996698   458A      2.999159  
     459A      3.002802   460A      3.024905   461A      3.030333  
     462A      3.040896   463A      3.042044   464A      3.047095  
     465A      3.060233   466A      3.066338   467A      3.080809  
     468A      3.081760   469A      3.097019   470A      3.103109  
     471A      3.107624   472A      3.111696   473A      3.116816  
     474A      3.129773   475A      3.136797   476A      3.147488  
     477A      3.150669   478A      3.175251   479A      3.178068  
     480A      3.194069   481A      3.205496   482A      3.213294  
     483A      3.219487   484A      3.224680   485A      3.225008  
     486A      3.234891   487A      3.247510   488A      3.269104  
     489A      3.272349   490A      3.280137   491A      3.286793  
     492A      3.300921   493A      3.308380   494A      3.322443  
     495A      3.326430   496A      3.332378   497A      3.341542  
     498A      3.356444   499A      3.359241   500A      3.366403  
     501A      3.371634   502A      3.391245   503A      3.392489  
     504A      3.397300   505A      3.403630   506A      3.427159  
     507A      3.432098   508A      3.435229   509A      3.442330  
     510A      3.447824   511A      3.462991   512A      3.471710  
     513A      3.475267   514A      3.492457   515A      3.500229  
     516A      3.504850   517A      3.519596   518A      3.524745  
     519A      3.542445   520A      3.546630   521A      3.558809  
     522A      3.564655   523A      3.578343   524A      3.579933  
     525A      3.595047   526A      3.601889   527A      3.605307  
     528A      3.609201   529A      3.615995   530A      3.620462  
     531A      3.639263   532A      3.649176   533A      3.649831  
     534A      3.663641   535A      3.682709   536A      3.685792  
     537A      3.691004   538A      3.699641   539A      3.716753  
     540A      3.735691   541A      3.745716   542A      3.750453  
     543A      3.763848   544A      3.767223   545A      3.775230  
     546A      3.787559   547A      3.792069   548A      3.802359  
     549A      3.810066   550A      3.818614   551A      3.825361  
     552A      3.825676   553A      3.835781   554A      3.839640  
     555A      3.844598   556A      3.859800   557A      3.866687  
     558A      3.869005   559A      3.881581   560A      3.884920  
     561A      3.892241   562A      3.903456   563A      3.914859  
     564A      3.929596   565A      3.944216   566A      3.963759  
     567A      3.973438   568A      3.979960   569A      3.985525  
     570A      4.002114   571A      4.013150   572A      4.025505  
     573A      4.036530   574A      4.040299   575A      4.058988  
     576A      4.070467   577A      4.077140   578A      4.082793  
     579A      4.101824   580A      4.110423   581A      4.116496  
     582A      4.129641   583A      4.141637   584A      4.154817  
     585A      4.158381   586A      4.173830   587A      4.181379  
     588A      4.195172   589A      4.205296   590A      4.212906  
     591A      4.231516   592A      4.247911   593A      4.249122  
     594A      4.264249   595A      4.269965   596A      4.285140  
     597A      4.294928   598A      4.298734   599A      4.316172  
     600A      4.339441   601A      4.360045   602A      4.364126  
     603A      4.367119   604A      4.373718   605A      4.400585  
     606A      4.402964   607A      4.410247   608A      4.420369  
     609A      4.424104   610A      4.431274   611A      4.445428  
     612A      4.449063   613A      4.456156   614A      4.477948  
     615A      4.484957   616A      4.485491   617A      4.499142  
     618A      4.503560   619A      4.531690   620A      4.540875  
     621A      4.547616   622A      4.561407   623A      4.575387  
     624A      4.583654   625A      4.588352   626A      4.602003  
     627A      4.604187   628A      4.615783   629A      4.633665  
     630A      4.637605   631A      4.649794   632A      4.674758  
     633A      4.683109   634A      4.688766   635A      4.704829  
     636A      4.731650   637A      4.738770   638A      4.743831  
     639A      4.751971   640A      4.766363   641A      4.775738  
     642A      4.786361   643A      4.806146   644A      4.812105  
     645A      4.829255   646A      4.839257   647A      4.862555  
     648A      4.872806   649A      4.880092   650A      4.893446  
     651A      4.911281   652A      4.916888   653A      4.959340  
     654A      4.974919   655A      4.992993   656A      5.008067  
     657A      5.018173   658A      5.025592   659A      5.052836  
     660A      5.068838   661A      5.088678   662A      5.103096  
     663A      5.108822   664A      5.145610   665A      5.159037  
     666A      5.166543   667A      5.238796   668A      5.271179  
     669A      5.275909   670A      5.300675   671A      5.318811  
     672A      5.345307   673A      5.369705   674A      5.383462  
     675A      5.389605   676A      5.427561   677A      5.453696  
     678A      5.454972   679A      5.464730   680A      5.499088  
     681A      5.553786   682A      5.574933   683A      5.578557  
     684A      5.586657   685A      5.612328   686A      5.612779  
     687A      5.658894   688A      5.678478   689A      5.689924  
     690A      5.718843   691A      5.737884   692A      5.746304  
     693A      5.755478   694A      5.765520   695A      5.772516  
     696A      5.802513   697A      5.827447   698A      5.846017  
     699A      5.856313   700A      5.860675   701A      5.879028  
     702A      5.883808   703A      5.890191   704A      5.901044  
     705A      5.902945   706A      5.925726   707A      5.931465  
     708A      5.936027   709A      5.943560   710A      5.947510  
     711A      5.969575   712A      5.977467   713A      5.989090  
     714A      5.993534   715A      6.004083   716A      6.009236  
     717A      6.022886   718A      6.023912   719A      6.037973  
     720A      6.056582   721A      6.062932   722A      6.067208  
     723A      6.073636   724A      6.083865   725A      6.087030  
     726A      6.096806   727A      6.114622   728A      6.127521  
     729A      6.133250   730A      6.151832   731A      6.153554  
     732A      6.159364   733A      6.173433   734A      6.185380  
     735A      6.194419   736A      6.199518   737A      6.201899  
     738A      6.214758   739A      6.220406   740A      6.220767  
     741A      6.224925   742A      6.239730   743A      6.251211  
     744A      6.264126   745A      6.267307   746A      6.280894  
     747A      6.293289   748A      6.304680   749A      6.311824  
     750A      6.318539   751A      6.328202   752A      6.332736  
     753A      6.342212   754A      6.357249   755A      6.362708  
     756A      6.368634   757A      6.379913   758A      6.385932  
     759A      6.392513   760A      6.398885   761A      6.402204  
     762A      6.421897   763A      6.430108   764A      6.436192  
     765A      6.437530   766A      6.450964   767A      6.457557  
     768A      6.462931   769A      6.465088   770A      6.471676  
     771A      6.494110   772A      6.495209   773A      6.503652  
     774A      6.508617   775A      6.523349   776A      6.538308  
     777A      6.549064   778A      6.555901   779A      6.560708  
     780A      6.569965   781A      6.581602   782A      6.598135  
     783A      6.603750   784A      6.615130   785A      6.625222  
     786A      6.630057   787A      6.631912   788A      6.638843  
     789A      6.642584   790A      6.653190   791A      6.661810  
     792A      6.667988   793A      6.671670   794A      6.675891  
     795A      6.694999   796A      6.710202   797A      6.725811  
     798A      6.728502   799A      6.732889   800A      6.751233  
     801A      6.754880   802A      6.787397   803A      6.791285  
     804A      6.799615   805A      6.801476   806A      6.811359  
     807A      6.826941   808A      6.842369   809A      6.848204  
     810A      6.859001   811A      6.875420   812A      6.898521  
     813A      6.908527   814A      6.915223   815A      6.933980  
     816A      6.936895   817A      6.946322   818A      6.962839  
     819A      6.969091   820A      6.974873   821A      6.989735  
     822A      6.998446   823A      7.022977   824A      7.025606  
     825A      7.043622   826A      7.047914   827A      7.053631  
     828A      7.061895   829A      7.080039   830A      7.086934  
     831A      7.094345   832A      7.115846   833A      7.123766  
     834A      7.132459   835A      7.133917   836A      7.146079  
     837A      7.172847   838A      7.180315   839A      7.187314  
     840A      7.199504   841A      7.207194   842A      7.229249  
     843A      7.237230   844A      7.238591   845A      7.243986  
     846A      7.252218   847A      7.268941   848A      7.275375  
     849A      7.281516   850A      7.300037   851A      7.313324  
     852A      7.321964   853A      7.350603   854A      7.361692  
     855A      7.370663   856A      7.381056   857A      7.384660  
     858A      7.401913   859A      7.410796   860A      7.423589  
     861A      7.427158   862A      7.441061   863A      7.443646  
     864A      7.448911   865A      7.468304   866A      7.482859  
     867A      7.488593   868A      7.500695   869A      7.524413  
     870A      7.528013   871A      7.531967   872A      7.546158  
     873A      7.553019   874A      7.558579   875A      7.577155  
     876A      7.592166   877A      7.611792   878A      7.617424  
     879A      7.622687   880A      7.631598   881A      7.640276  
     882A      7.655497   883A      7.661099   884A      7.677316  
     885A      7.683659   886A      7.687693   887A      7.692818  
     888A      7.707711   889A      7.716744   890A      7.723003  
     891A      7.729539   892A      7.747381   893A      7.762357  
     894A      7.766370   895A      7.771342   896A      7.795518  
     897A      7.802361   898A      7.810538   899A      7.826253  
     900A      7.834122   901A      7.848511   902A      7.851053  
     903A      7.859665   904A      7.867535   905A      7.872053  
     906A      7.885300   907A      7.887177   908A      7.908038  
     909A      7.912004   910A      7.923744   911A      7.925644  
     912A      7.933820   913A      7.936230   914A      7.950548  
     915A      7.956305   916A      7.961758   917A      7.973495  
     918A      7.997979   919A      8.005676   920A      8.026257  
     921A      8.030217   922A      8.047851   923A      8.053486  
     924A      8.068890   925A      8.075997   926A      8.087556  
     927A      8.089490   928A      8.105348   929A      8.107860  
     930A      8.117980   931A      8.156969   932A      8.168832  
     933A      8.175561   934A      8.181058   935A      8.196035  
     936A      8.208983   937A      8.213717   938A      8.214706  
     939A      8.219624   940A      8.221322   941A      8.226400  
     942A      8.230017   943A      8.240267   944A      8.247228  
     945A      8.256746   946A      8.270855   947A      8.272370  
     948A      8.274909   949A      8.281777   950A      8.284901  
     951A      8.296165   952A      8.312530   953A      8.322462  
     954A      8.339254   955A      8.349582   956A      8.355510  
     957A      8.355870   958A      8.362856   959A      8.380962  
     960A      8.397280   961A      8.400644   962A      8.410372  
     963A      8.413564   964A      8.418715   965A      8.428279  
     966A      8.432785   967A      8.435598   968A      8.448024  
     969A      8.452809   970A      8.463315   971A      8.481537  
     972A      8.484429   973A      8.497902   974A      8.502974  
     975A      8.514167   976A      8.523482   977A      8.527986  
     978A      8.538396   979A      8.550852   980A      8.556421  
     981A      8.563230   982A      8.571653   983A      8.586073  
     984A      8.587762   985A      8.615074   986A      8.633619  
     987A      8.646966   988A      8.657502   989A      8.670481  
     990A      8.687179   991A      8.693663   992A      8.703508  
     993A      8.711139   994A      8.734867   995A      8.738250  
     996A      8.752214   997A      8.763638   998A      8.771380  
     999A      8.786433  1000A      8.795259  1001A      8.800457  
    1002A      8.818647  1003A      8.851003  1004A      8.853580  
    1005A      8.867767  1006A      8.883490  1007A      8.884781  
    1008A      8.888874  1009A      8.904574  1010A      8.906350  
    1011A      8.919131  1012A      8.937348  1013A      8.939836  
    1014A      8.959792  1015A      8.975582  1016A      8.987346  
    1017A      9.006338  1018A      9.029768  1019A      9.034200  
    1020A      9.043276  1021A      9.065775  1022A      9.068759  
    1023A      9.077939  1024A      9.089112  1025A      9.108073  
    1026A      9.138918  1027A      9.144292  1028A      9.154832  
    1029A      9.161687  1030A      9.166893  1031A      9.177592  
    1032A      9.181020  1033A      9.196933  1034A      9.201002  
    1035A      9.211467  1036A      9.220132  1037A      9.223717  
    1038A      9.235470  1039A      9.249725  1040A      9.270068  
    1041A      9.276381  1042A      9.279087  1043A      9.292568  
    1044A      9.292849  1045A      9.319046  1046A      9.329596  
    1047A      9.341550  1048A      9.350062  1049A      9.357639  
    1050A      9.374276  1051A      9.375298  1052A      9.380303  
    1053A      9.380834  1054A      9.387050  1055A      9.392225  
    1056A      9.402331  1057A      9.404613  1058A      9.406276  
    1059A      9.414887  1060A      9.427052  1061A      9.428927  
    1062A      9.433482  1063A      9.447101  1064A      9.459265  
    1065A      9.461627  1066A      9.462608  1067A      9.475753  
    1068A      9.484192  1069A      9.507750  1070A      9.512170  
    1071A      9.532315  1072A      9.549913  1073A      9.581253  
    1074A      9.586392  1075A      9.606100  1076A      9.617065  
    1077A      9.627617  1078A      9.633599  1079A      9.638971  
    1080A      9.660676  1081A      9.661255  1082A      9.676078  
    1083A      9.690113  1084A      9.701166  1085A      9.733849  
    1086A      9.768045  1087A      9.793122  1088A      9.803592  
    1089A      9.839628  1090A      9.846244  1091A      9.854848  
    1092A      9.867910  1093A      9.921085  1094A      9.925386  
    1095A      9.963496  1096A      9.986262  1097A     10.053786  
    1098A     10.079817  1099A     10.105010  1100A     10.108335  
    1101A     10.112671  1102A     10.127609  1103A     10.191502  
    1104A     10.198915  1105A     10.223759  1106A     10.234311  
    1107A     10.243429  1108A     10.247363  1109A     10.253220  
    1110A     10.279187  1111A     10.288510  1112A     10.291397  
    1113A     10.308496  1114A     10.314989  1115A     10.342839  
    1116A     10.352553  1117A     10.385791  1118A     10.396831  
    1119A     10.414942  1120A     10.425463  1121A     10.448139  
    1122A     10.453926  1123A     10.466382  1124A     10.482558  
    1125A     10.514759  1126A     10.521167  1127A     10.526135  
    1128A     10.539703  1129A     10.551607  1130A     10.561823  
    1131A     10.589124  1132A     10.590212  1133A     10.600488  
    1134A     10.627244  1135A     10.632423  1136A     10.642228  
    1137A     10.649045  1138A     10.685372  1139A     10.696986  
    1140A     10.724635  1141A     10.738744  1142A     10.750852  
    1143A     10.766370  1144A     10.797196  1145A     10.824853  
    1146A     10.851177  1147A     10.851887  1148A     10.863535  
    1149A     10.886536  1150A     10.927184  1151A     10.936411  
    1152A     10.948542  1153A     10.959446  1154A     10.974268  
    1155A     11.023299  1156A     11.026249  1157A     11.051662  
    1158A     11.082594  1159A     11.089616  1160A     11.107094  
    1161A     11.143558  1162A     11.145018  1163A     11.154570  
    1164A     11.163280  1165A     11.204408  1166A     11.220686  
    1167A     11.254874  1168A     11.280222  1169A     11.289971  
    1170A     11.378353  1171A     11.386411  1172A     11.475915  
    1173A     11.505633  1174A     11.532172  1175A     11.555244  
    1176A     11.572591  1177A     11.581447  1178A     11.619819  
    1179A     11.627523  1180A     11.632224  1181A     11.637236  
    1182A     11.652151  1183A     11.662262  1184A     11.668657  
    1185A     11.675415  1186A     11.686998  1187A     11.696334  
    1188A     11.697194  1189A     11.704958  1190A     11.722771  
    1191A     11.782964  1192A     11.810472  1193A     11.870611  
    1194A     11.882535  1195A     12.000650  1196A     12.008736  
    1197A     12.012149  1198A     12.019400  1199A     12.049255  
    1200A     12.051554  1201A     12.064261  1202A     12.066707  
    1203A     12.101900  1204A     12.105661  1205A     12.133235  
    1206A     12.172192  1207A     12.187663  1208A     12.202350  
    1209A     12.216191  1210A     12.241940  1211A     12.273908  
    1212A     12.280514  1213A     12.318136  1214A     12.344284  
    1215A     12.354483  1216A     12.355654  1217A     12.370085  
    1218A     12.400670  1219A     12.402272  1220A     12.431734  
    1221A     12.435680  1222A     12.444308  1223A     12.446572  
    1224A     12.495181  1225A     12.503761  1226A     12.520759  
    1227A     12.527664  1228A     12.551448  1229A     12.637279  
    1230A     12.709993  1231A     12.721140  1232A     12.728877  
    1233A     12.737279  1234A     12.747375  1235A     12.754594  
    1236A     12.760733  1237A     12.800740  1238A     12.820540  
    1239A     12.823759  1240A     12.826606  1241A     12.845996  
    1242A     12.854955  1243A     12.859087  1244A     12.870090  
    1245A     12.899850  1246A     12.906040  1247A     12.915429  
    1248A     12.930895  1249A     12.995443  1250A     13.000045  
    1251A     13.211954  1252A     13.244583  1253A     13.387411  
    1254A     13.393301  1255A     13.431218  1256A     13.442618  
    1257A     13.490641  1258A     13.762093  1259A     13.790407  
    1260A     13.805769  1261A     13.822252  1262A     13.864986  
    1263A     13.906164  1264A     13.938768  1265A     14.149544  
    1266A     14.163111  1267A     14.194120  1268A     14.203269  
    1269A     14.214932  1270A     14.290004  1271A     14.400167  
    1272A     14.436000  1273A     14.454691  1274A     14.524362  
    1275A     14.539215  1276A     14.576846  1277A     14.677004  
    1278A     14.693645  1279A     14.928264  1280A     14.936085  
    1281A     15.038307  1282A     15.067259  1283A     16.781898  
    1284A     16.845662  1285A     25.216284  1286A     25.257007  
    1287A     25.280228  1288A     25.349557  1289A     26.114487  
    1290A     26.129539  1291A     26.652450  1292A     26.712476  
    1293A     34.906311  1294A     34.923463  1295A     43.007896  
    1296A     43.075960  1297A     43.127219  1298A     43.207964  
    1299A     44.501372  1300A     44.734260  

    Final Occupation by Irrep:
              A 
    DOCC [    62 ]

  Energy converged.

  @DF-RHF Final Energy:  -869.49095456050838

   => Energetics <=

    Nuclear Repulsion Energy =           1089.6016289307808620
    One-Electron Energy =               -3357.6820074495121844
    Two-Electron Energy =                1398.5894239582230512
    Total Energy =                       -869.4909545605082712



Properties will be evaluated at   0.000000,   0.000000,   0.000000 Bohr

Properties computed using the SCF density matrix

  Nuclear Dipole Moment: (a.u.)
     X:     6.4283      Y:     6.0223      Z:    -0.7176

  Electronic Dipole Moment: (a.u.)
     X:    -4.3478      Y:    -4.8116      Z:     2.4959

  Dipole Moment: (a.u.)
     X:     2.0805      Y:     1.2107      Z:     1.7783     Total:     2.9928

  Dipole Moment: (Debye)
     X:     5.2880      Y:     3.0773      Z:     4.5200     Total:     7.6068


*** tstop() called on hex15 at Mon Mar  5 23:06:35 2018
Module time:
	user time   =    1011.04 seconds =      16.85 minutes
	system time =       6.56 seconds =       0.11 minutes
	total time  =        375 seconds =       6.25 minutes
Total time:
	user time   =    1011.04 seconds =      16.85 minutes
	system time =       6.56 seconds =       0.11 minutes
	total time  =        375 seconds =       6.25 minutes

*** Psi4 exiting successfully. Buy a developer a beer!
