
    -----------------------------------------------------------------------
          Psi4: An Open-Source Ab Initio Electronic Structure Package
                               Psi4 1.2a1.dev875 

                         Git: Rev {symm_JK} 0ea9481 dirty


    R. M. Parrish, L. A. Burns, D. G. A. Smith, A. C. Simmonett,
    A. E. DePrince III, E. G. Hohenstein, U. Bozkaya, A. Yu. Sokolov,
    R. Di Remigio, R. M. Richard, J. F. Gonthier, A. M. James,
    H. R. McAlexander, A. Kumar, M. Saitow, X. Wang, B. P. Pritchard,
    P. Verma, H. F. Schaefer III, K. Patkowski, R. A. King, E. F. Valeev,
    F. A. Evangelista, J. M. Turney, T. D. Crawford, and C. D. Sherrill,
    J. Chem. Theory Comput. 13(7) pp 3185--3197 (2017).
    (doi: 10.1021/acs.jctc.7b00174)

    -----------------------------------------------------------------------


    Psi4 started on: Saturday, 03 March 2018 09:56PM

    Process ID:   4756
    PSIDATADIR: /theoryfs2/ds/schieber/Gits/mspsi4/objdir3/stage/usr/local/psi4/share/psi4
    Memory:     500.0 MiB
    Threads:    6
    
  ==> Input File <==

--------------------------------------------------------------------------
memory 60 Gb

molecule protein_330 {
0 1
 N   26.992  23.877   6.169
 C   25.757  24.566   6.593
 C   26.029  26.025   6.996
 O   26.947  26.291   7.775
 C   25.087  23.849   7.776
 C   24.646  22.409   7.505
 C   23.728  21.896   8.637
 N   22.952  20.730   8.230
 C   22.367  19.871   9.064
 N   22.376  20.074  10.370
 N   21.776  18.789   8.589
 N   18.626  30.444   6.627
 C   17.853  29.516   5.837
 C   16.945  30.292   4.886
 O   15.843  30.678   5.237
 C   17.047  28.642   6.811
 C   16.316  27.513   6.146
 O   16.236  27.458   4.905
 O   15.762  26.696   6.882
 N   15.213  29.111   2.702
 C   14.043  28.331   2.349
 C   12.958  28.456   3.394
 O   11.832  28.015   3.171
 N   13.301  28.967   4.569
 C   12.324  29.192   5.642
 C   11.629  30.567   5.554
 O   12.303  31.618   5.504
 C   13.031  29.084   6.978
 N   12.390  30.005  13.537
 C   11.893  28.983  14.419
 C   13.036  28.655  15.292
 O   14.067  28.221  14.821
 C   11.528  27.683  13.690
 C   10.656  26.825  14.592
 C   10.805  27.963  12.423
 N    3.167  25.258  11.849
 C    3.978  25.464  10.655
 C    4.420  24.140  10.114
 O    4.667  23.248  10.887
 C    5.234  26.259  10.953
 C    5.959  25.628  12.127
 C    4.898  27.703  11.148
 C    7.369  26.170  12.291
 N    4.567  24.042   8.795
 C    4.886  22.777   8.145
 C    6.265  22.720   7.521
 O    6.723  23.689   6.900
 N    7.015  21.688   7.884
 C    8.313  21.471   7.276
 C    8.221  20.379   6.232
 O    7.177  20.197   5.583
 N   17.220  22.219  14.948
 C   18.236  23.243  14.762
 C   17.549  24.626  14.801
 O   16.328  24.735  14.569
 C   18.969  23.017  13.388
 C   18.009  22.769  12.263
 C   19.843  24.144  13.080
 N    9.661  34.528  -1.525
 C   10.385  33.251  -1.642
 C   11.348  33.305  -2.780
 O   10.964  33.682  -3.906
 C    9.435  32.061  -1.862
 C    8.623  31.716  -0.644
 C    7.828  30.471  -0.844
 N    7.143  30.102   0.378
 C    6.523  28.938   0.561
 N    6.476  28.028  -0.411
 N    5.925  28.688   1.719
 N   17.407  27.054  -1.437
 C   17.227  26.751  -0.026
 C   18.555  26.446   0.653
 O   19.003  25.309   0.692
 C   16.258  25.572   0.084
 C   15.759  25.336   1.493
 O   16.399  25.780   2.453
 O   14.731  24.675   1.645
 N   19.106  26.199   3.688
 C   18.957  25.372   4.876
 C   18.845  23.903   4.520
 O   18.660  23.054   5.417
 N   18.819  23.600   3.217
 C   18.721  22.211   2.738
 C   20.089  21.661   2.292
 O   20.749  22.243   1.403
 C   17.682  22.117   1.578
 N   20.536  20.559   2.918
 C   21.779  19.912   2.496
 C   21.693  19.374   1.107
 O   22.642  19.502   0.361
 C   22.169  18.827   3.447
 C   22.272  19.337   4.844
 O   22.714  20.482   5.029
 O   21.836  18.647   5.778
 N   20.524  18.868   0.719
 C   20.355  18.227  -0.584
 C   19.212  18.807  -1.371
 O   18.383  19.523  -0.846
 C   20.084  16.745  -0.413
 C   21.023  16.088   0.586
 O   22.233  15.970   0.265
 O   20.531  15.682   1.672
 N   15.750  18.102  -3.440
 C   14.628  17.162  -3.514
 C   13.618  17.726  -4.436
 O   13.169  18.861  -4.263
 C   13.781  17.005  -2.245
 C   13.297  15.592  -2.184
 C   14.518  17.455  -1.007
 N   15.582  11.636   4.604
 C   16.003  12.986   4.955
 C   15.018  13.507   5.961
 O   13.822  13.222   5.884
 C   16.040  13.915   3.699
 C   14.745  13.761   2.918
 C   17.229  13.534   2.782
 C   14.742  14.561   1.698
 N   15.542  14.239   6.941
 C   14.714  14.799   8.014
 C   14.762  16.314   8.114
 O   15.803  16.952   7.888
 N   13.583  16.896   8.239
 C   13.484  18.319   8.459
 C   12.647  18.565   9.672
 O   12.880  17.976  10.721
 N   11.850  19.611   9.584
 C   10.858  19.974  10.594
 C    9.707  18.988  10.393
 O    9.341  18.670   9.251
 C   10.365  21.453  10.316
 C   11.556  22.421  10.394
 C    9.299  21.862  11.270
 C   11.936  22.850  11.773
 N    6.922  19.074  -0.214
 C    5.896  20.066  -0.556
 C    6.244  20.969  -1.727
 O    5.343  21.294  -2.509
 C    5.694  20.874   0.729
 C    6.274  19.954   1.831
 C    7.387  19.243   1.190
 N   12.983  21.755  -4.066
 C   13.979  22.449  -3.233
 C   15.345  22.255  -3.870
 O   15.779  21.111  -4.072
 C   14.041  21.833  -1.837
 C   12.754  22.151  -1.088
 C   15.323  22.264  -1.122
 C   12.438  21.217   0.060
 H   27.334  23.065   6.705
 H   25.033  24.519   5.755
 H   24.188  24.444   8.041
 H   25.767  23.854   8.654
 H   25.479  21.708   7.285
 H   23.966  22.527   6.640
 H   23.005  22.676   8.962
 H   24.404  21.653   9.485
 H   23.018  20.444   7.256
 H   22.784  20.916  10.798
 H   21.927  19.391  10.999
 H   21.610  18.348   7.739
 H   18.180  30.990   7.295
 H   18.510  28.835   5.249
 H   16.336  29.276   7.377
 H   17.778  28.186   7.516
 H   15.845  26.702   7.843
 H   16.039  28.625   3.045
 H   14.291  27.264   2.274
 H   13.668  28.640   1.350
 H   14.271  29.177   4.777
 H   11.587  28.358   5.655
 H   13.827  29.847   7.070
 H   13.500  28.084   7.074
 H   12.309  29.232   7.807
 H   13.204  29.776  12.965
 H   11.011  29.351  14.967
 H   12.430  27.105  13.380
 H    9.714  27.350  14.863
 H   11.198  26.567  15.527
 H   10.393  25.870  14.087
 H    9.911  28.587  12.616
 H   10.448  27.013  11.983
 H   11.451  28.490  11.688
 H    3.563  24.747  12.634
 H    3.422  25.991   9.845
 H    5.881  26.217  10.044
 H    6.153  24.558  11.964
 H    5.422  25.753  13.090
 H    4.266  27.849  12.051
 H    4.356  28.105  10.265
 H    5.823  28.300  11.242
 H    7.884  26.129  11.336
 H    7.927  25.618  13.068
 H    7.340  27.225  12.604
 H    4.436  24.871   8.195
 H    4.744  21.930   8.802
 H    4.143  22.632   7.335
 H    6.726  21.108   8.640
 H    8.930  22.366   7.083
 H    8.776  20.887   8.058
 H   16.406  22.244  14.318
 H   18.999  23.198  15.571
 H   19.592  22.100  13.487
 H   17.324  23.628  12.134
 H   17.428  21.844  12.409
 H   18.569  22.629  11.315
 H   19.278  25.069  12.869
 H   20.434  23.924  12.164
 H   20.573  24.316  13.899
 H   10.354  35.296  -1.365
 H    9.039  34.508  -0.687
 H   10.930  33.064  -0.693
 H   10.068  31.172  -2.085
 H    8.777  32.246  -2.740
 H    7.934  32.550  -0.391
 H    9.318  31.553   0.211
 H    8.557  29.667  -1.094
 H    7.099  30.580  -1.677
 H    7.157  30.766   1.165
 H    6.905  28.158  -1.337
 H    5.226  27.934   1.752
 H    6.506  28.741   2.545
 H   17.860  26.421  -2.023
 H   16.724  27.595   0.500
 H   16.724  24.663  -0.337
 H   15.363  25.845  -0.519
 H   16.737  25.171   3.109
 H   18.314  26.771   3.377
 H   18.015  25.631   5.391
 H   19.792  25.567   5.577
 H   19.024  24.284   2.529
 H   18.255  21.593   3.494
 H   18.005  22.732   0.714
 H   16.693  22.482   1.927
 H   17.576  21.064   1.246
 H   19.976  20.073   3.597
 H   22.602  20.664   2.537
 H   23.175  18.459   3.144
 H   21.465  17.966   3.392
 H   21.492  17.752   5.634
 H   19.735  18.818   1.381
 H   21.291  18.340  -1.170
 H   20.109  16.188  -1.374
 H   19.050  16.648  -0.012
 H   19.629  15.364   1.734
 H   15.541  19.065  -3.172
 H   15.011  16.180  -3.836
 H   12.886  17.674  -2.203
 H   14.115  14.872  -2.046
 H   12.706  15.323  -3.086
 H   12.624  15.478  -1.307
 H   15.405  16.799  -0.936
 H   13.886  17.316  -0.103
 H   14.813  18.522  -1.068
 H   14.637  11.518   4.270
 H   17.029  13.001   5.390
 H   16.197  14.968   4.027
 H   14.560  12.725   2.573
 H   13.896  14.101   3.546
 H   17.119  12.502   2.383
 H   18.173  13.584   3.364
 H   17.362  14.247   1.947
 H   15.450  14.187   0.950
 H   14.934  15.631   1.923
 H   13.745  14.495   1.219
 H   16.553  14.447   6.959
 H   15.127  14.418   8.968
 H   13.688  14.463   7.968
 H   12.728  16.393   8.153
 H   13.053  18.790   7.555
 H   14.480  18.781   8.624
 H   11.826  20.143   8.698
 H   11.286  19.940  11.621
 H   10.063  21.564   9.297
 H   11.315  23.360   9.884
 H   12.440  22.023   9.856
 H    9.621  21.714  12.318
 H    8.394  21.239  11.113
 H    8.997  22.919  11.107
 H   11.134  23.426  12.282
 H   12.810  23.522  11.686
 H   12.221  21.978  12.391
 H    4.941  19.524  -0.743
 H    4.677  21.290   0.894
 H    6.394  21.728   0.689
 H    5.477  19.197   2.015
 H    6.502  20.431   2.804
 H    8.302  19.874   1.184
 H    7.530  18.304   1.761
 H   13.152  20.842  -4.311
 H   13.750  23.533  -3.124
 H   14.105  20.729  -1.972
 H   11.925  21.963  -1.790
 H   12.703  23.219  -0.784
 H   15.277  23.356  -1.041
 H   16.268  21.943  -1.606
 H   15.338  21.826  -0.104
 H   12.527  20.161  -0.258
 H   11.414  21.391   0.440
 H   13.162  21.376   0.886
 H   21.381  18.267   9.325
 H    9.833  34.762  -1.491
 H   10.143  33.635  -1.627
 H    9.854  34.178  -1.590
 H    6.004  27.183  -0.233
 H   27.572  24.275   5.431
 H   25.288  26.786   6.709
 H   19.646  30.419   6.619
 H   17.295  30.415   3.850
 H   15.281  30.079   2.387
 H   10.529  30.561   5.581
 H   11.867  30.865  13.369
 H   12.921  28.863  16.366
 H    2.190  25.551  11.868
 H    9.121  19.750   6.168
 H   17.321  21.440  15.599
 H   18.162  25.488  15.103
 H   10.170  35.409  -1.454
 H   12.322  32.817  -2.630
 H   16.947  27.858  -1.864
 H   19.060  27.284   1.155
 H   20.034  26.347   3.290
 H   19.162  18.493  -2.424
 H   16.715  17.829  -3.624
 H   13.269  17.060  -5.239
 H   16.192  10.825   4.703
 H    9.255  18.544  11.293
 H    7.155  18.340  -0.883
 H    7.291  21.286  -1.843
 H   12.169  22.229  -4.457
 H   15.923  23.158  -4.116
}

set {
basis cc-pvdz
scf_type df
guess sad
DF_SCF_TYPE DFJK
}

energy('HF')
--------------------------------------------------------------------------

  Memory set to  55.879 GiB by Python driver.

*** tstart() called on hex15
*** at Sat Mar  3 21:56:03 2018

   => Loading Basis Set <=

    Name: CC-PVDZ
    Role: ORBITAL
    Keyword: BASIS
    atoms 1, 8, 10-12, 20, 24, 29, 36, 44, 48, 52, 59, 66, 68-70, 78, 82, 87, 95, 103, 110, 118, 122, 126, 134, 141                                                                                                                                                                                      entry N          line   168 file /theoryfs2/ds/schieber/Gits/mspsi4/objdir3/stage/usr/local/psi4/share/psi4/basis/cc-pvdz.gbs 
    atoms 2-3, 5-7, 9, 13-14, 16-17, 21-22, 25-26, 28, 30-31, 33-35, 37-38, 40-43, 45-46, 49-50, 53-54, 56-58, 60-61, 63-65, 67, 71-72, 74-75, 79-80, 83-84, 86, 88-89, 91-92, 96-97, 99-100, 104-105, 107-109, 111-112, 114-117, 119-120, 123-124, 127-128, 130-133, 135-136, 138-140, 142-143, 145-148 entry C          line   138 file /theoryfs2/ds/schieber/Gits/mspsi4/objdir3/stage/usr/local/psi4/share/psi4/basis/cc-pvdz.gbs 
    atoms 4, 15, 18-19, 23, 27, 32, 39, 47, 51, 55, 62, 73, 76-77, 81, 85, 90, 93-94, 98, 101-102, 106, 113, 121, 125, 129, 137, 144                                                                                                                                                                     entry O          line   198 file /theoryfs2/ds/schieber/Gits/mspsi4/objdir3/stage/usr/local/psi4/share/psi4/basis/cc-pvdz.gbs 
    atoms 149-330                                                                                                                                                                                                                                                                                        entry H          line    22 file /theoryfs2/ds/schieber/Gits/mspsi4/objdir3/stage/usr/local/psi4/share/psi4/basis/cc-pvdz.gbs 


         ---------------------------------------------------------
                                   SCF
            by Justin Turney, Rob Parrish, Andy Simmonett
                             and Daniel Smith
                              RHF Reference
                        6 Threads,  57220 MiB Core
         ---------------------------------------------------------

  ==> Geometry <==

    Molecular point group: c1
    Full point group: C1

    Geometry (in Angstrom), charge = 0, multiplicity = 1:

       Center              X                  Y                   Z               Mass       
    ------------   -----------------  -----------------  -----------------  -----------------
           N         12.528122723032     0.928533493986     1.366240864081    14.003074004780
           C         11.293122723032     1.617533493986     1.790240864081    12.000000000000
           C         11.565122723032     3.076533493986     2.193240864081    12.000000000000
           O         12.483122723032     3.342533493986     2.972240864081    15.994914619560
           C         10.623122723032     0.900533493986     2.973240864081    12.000000000000
           C         10.182122723032    -0.539466506014     2.702240864081    12.000000000000
           C          9.264122723032    -1.052466506014     3.834240864081    12.000000000000
           N          8.488122723032    -2.218466506014     3.427240864081    14.003074004780
           C          7.903122723032    -3.077466506014     4.261240864081    12.000000000000
           N          7.912122723032    -2.874466506014     5.567240864081    14.003074004780
           N          7.312122723032    -4.159466506014     3.786240864081    14.003074004780
           N          4.162122723032     7.495533493986     1.824240864081    14.003074004780
           C          3.389122723032     6.567533493986     1.034240864081    12.000000000000
           C          2.481122723032     7.343533493986     0.083240864081    12.000000000000
           O          1.379122723032     7.729533493986     0.434240864081    15.994914619560
           C          2.583122723032     5.693533493986     2.008240864081    12.000000000000
           C          1.852122723032     4.564533493986     1.343240864081    12.000000000000
           O          1.772122723032     4.509533493986     0.102240864081    15.994914619560
           O          1.298122723032     3.747533493986     2.079240864081    15.994914619560
           N          0.749122723032     6.162533493986    -2.100759135919    14.003074004780
           C         -0.420877276968     5.382533493986    -2.453759135919    12.000000000000
           C         -1.505877276968     5.507533493986    -1.408759135919    12.000000000000
           O         -2.631877276968     5.066533493986    -1.631759135919    15.994914619560
           N         -1.162877276968     6.018533493986    -0.233759135919    14.003074004780
           C         -2.139877276968     6.243533493986     0.839240864081    12.000000000000
           C         -2.834877276968     7.618533493986     0.751240864081    12.000000000000
           O         -2.160877276968     8.669533493986     0.701240864081    15.994914619560
           C         -1.432877276968     6.135533493986     2.175240864081    12.000000000000
           N         -2.073877276968     7.056533493986     8.734240864081    14.003074004780
           C         -2.570877276968     6.034533493986     9.616240864081    12.000000000000
           C         -1.427877276968     5.706533493986    10.489240864081    12.000000000000
           O         -0.396877276968     5.272533493986    10.018240864081    15.994914619560
           C         -2.935877276968     4.734533493986     8.887240864081    12.000000000000
           C         -3.807877276968     3.876533493986     9.789240864081    12.000000000000
           C         -3.658877276968     5.014533493986     7.620240864081    12.000000000000
           N        -11.296877276968     2.309533493986     7.046240864081    14.003074004780
           C        -10.485877276968     2.515533493986     5.852240864081    12.000000000000
           C        -10.043877276968     1.191533493986     5.311240864081    12.000000000000
           O         -9.796877276968     0.299533493986     6.084240864081    15.994914619560
           C         -9.229877276968     3.310533493986     6.150240864081    12.000000000000
           C         -8.504877276968     2.679533493986     7.324240864081    12.000000000000
           C         -9.565877276968     4.754533493986     6.345240864081    12.000000000000
           C         -7.094877276968     3.221533493986     7.488240864081    12.000000000000
           N         -9.896877276968     1.093533493986     3.992240864081    14.003074004780
           C         -9.577877276968    -0.171466506014     3.342240864081    12.000000000000
           C         -8.198877276968    -0.228466506014     2.718240864081    12.000000000000
           O         -7.740877276968     0.740533493986     2.097240864081    15.994914619560
           N         -7.448877276968    -1.260466506014     3.081240864081    14.003074004780
           C         -6.150877276968    -1.477466506014     2.473240864081    12.000000000000
           C         -6.242877276968    -2.569466506014     1.429240864081    12.000000000000
           O         -7.286877276968    -2.751466506014     0.780240864081    15.994914619560
           N          2.756122723032    -0.729466506014    10.145240864081    14.003074004780
           C          3.772122723032     0.294533493986     9.959240864081    12.000000000000
           C          3.085122723032     1.677533493986     9.998240864081    12.000000000000
           O          1.864122723032     1.786533493986     9.766240864081    15.994914619560
           C          4.505122723032     0.068533493986     8.585240864081    12.000000000000
           C          3.545122723032    -0.179466506014     7.460240864081    12.000000000000
           C          5.379122723032     1.195533493986     8.277240864081    12.000000000000
           N         -4.802877276968    11.579533493986    -6.327759135919    14.003074004780
           C         -4.078877276968    10.302533493986    -6.444759135919    12.000000000000
           C         -3.115877276968    10.356533493986    -7.582759135919    12.000000000000
           O         -3.499877276968    10.733533493986    -8.708759135919    15.994914619560
           C         -5.028877276968     9.112533493986    -6.664759135919    12.000000000000
           C         -5.840877276968     8.767533493986    -5.446759135919    12.000000000000
           C         -6.635877276968     7.522533493986    -5.646759135919    12.000000000000
           N         -7.320877276968     7.153533493986    -4.424759135919    14.003074004780
           C         -7.940877276968     5.989533493986    -4.241759135919    12.000000000000
           N         -7.987877276968     5.079533493986    -5.213759135919    14.003074004780
           N         -8.538877276968     5.739533493986    -3.083759135919    14.003074004780
           N          2.943122723032     4.105533493986    -6.239759135919    14.003074004780
           C          2.763122723032     3.802533493986    -4.828759135919    12.000000000000
           C          4.091122723032     3.497533493986    -4.149759135919    12.000000000000
           O          4.539122723032     2.360533493986    -4.110759135919    15.994914619560
           C          1.794122723032     2.623533493986    -4.718759135919    12.000000000000
           C          1.295122723032     2.387533493986    -3.309759135919    12.000000000000
           O          1.935122723032     2.831533493986    -2.349759135919    15.994914619560
           O          0.267122723032     1.726533493986    -3.157759135919    15.994914619560
           N          4.642122723032     3.250533493986    -1.114759135919    14.003074004780
           C          4.493122723032     2.423533493986     0.073240864081    12.000000000000
           C          4.381122723032     0.954533493986    -0.282759135919    12.000000000000
           O          4.196122723032     0.105533493986     0.614240864081    15.994914619560
           N          4.355122723032     0.651533493986    -1.585759135919    14.003074004780
           C          4.257122723032    -0.737466506014    -2.064759135919    12.000000000000
           C          5.625122723032    -1.287466506014    -2.510759135919    12.000000000000
           O          6.285122723032    -0.705466506014    -3.399759135919    15.994914619560
           C          3.218122723032    -0.831466506014    -3.224759135919    12.000000000000
           N          6.072122723032    -2.389466506014    -1.884759135919    14.003074004780
           C          7.315122723032    -3.036466506014    -2.306759135919    12.000000000000
           C          7.229122723032    -3.574466506014    -3.695759135919    12.000000000000
           O          8.178122723032    -3.446466506014    -4.441759135919    15.994914619560
           C          7.705122723032    -4.121466506014    -1.355759135919    12.000000000000
           C          7.808122723032    -3.611466506014     0.041240864081    12.000000000000
           O          8.250122723032    -2.466466506014     0.226240864081    15.994914619560
           O          7.372122723032    -4.301466506014     0.975240864081    15.994914619560
           N          6.060122723032    -4.080466506014    -4.083759135919    14.003074004780
           C          5.891122723032    -4.721466506014    -5.386759135919    12.000000000000
           C          4.748122723032    -4.141466506014    -6.173759135919    12.000000000000
           O          3.919122723032    -3.425466506014    -5.648759135919    15.994914619560
           C          5.620122723032    -6.203466506014    -5.215759135919    12.000000000000
           C          6.559122723032    -6.860466506014    -4.216759135919    12.000000000000
           O          7.769122723032    -6.978466506014    -4.537759135919    15.994914619560
           O          6.067122723032    -7.266466506014    -3.130759135919    15.994914619560
           N          1.286122723032    -4.846466506014    -8.242759135919    14.003074004780
           C          0.164122723032    -5.786466506014    -8.316759135919    12.000000000000
           C         -0.845877276968    -5.222466506014    -9.238759135919    12.000000000000
           O         -1.294877276968    -4.087466506014    -9.065759135919    15.994914619560
           C         -0.682877276968    -5.943466506014    -7.047759135919    12.000000000000
           C         -1.166877276968    -7.356466506014    -6.986759135919    12.000000000000
           C          0.054122723032    -5.493466506014    -5.809759135919    12.000000000000
           N          1.118122723032   -11.312466506014    -0.198759135919    14.003074004780
           C          1.539122723032    -9.962466506014     0.152240864081    12.000000000000
           C          0.554122723032    -9.441466506014     1.158240864081    12.000000000000
           O         -0.641877276968    -9.726466506014     1.081240864081    15.994914619560
           C          1.576122723032    -9.033466506014    -1.103759135919    12.000000000000
           C          0.281122723032    -9.187466506014    -1.884759135919    12.000000000000
           C          2.765122723032    -9.414466506014    -2.020759135919    12.000000000000
           C          0.278122723032    -8.387466506014    -3.104759135919    12.000000000000
           N          1.078122723032    -8.709466506014     2.138240864081    14.003074004780
           C          0.250122723032    -8.149466506014     3.211240864081    12.000000000000
           C          0.298122723032    -6.634466506014     3.311240864081    12.000000000000
           O          1.339122723032    -5.996466506014     3.085240864081    15.994914619560
           N         -0.880877276968    -6.052466506014     3.436240864081    14.003074004780
           C         -0.979877276968    -4.629466506014     3.656240864081    12.000000000000
           C         -1.816877276968    -4.383466506014     4.869240864081    12.000000000000
           O         -1.583877276968    -4.972466506014     5.918240864081    15.994914619560
           N         -2.613877276968    -3.337466506014     4.781240864081    14.003074004780
           C         -3.605877276968    -2.974466506014     5.791240864081    12.000000000000
           C         -4.756877276968    -3.960466506014     5.590240864081    12.000000000000
           O         -5.122877276968    -4.278466506014     4.448240864081    15.994914619560
           C         -4.098877276968    -1.495466506014     5.513240864081    12.000000000000
           C         -2.907877276968    -0.527466506014     5.591240864081    12.000000000000
           C         -5.164877276968    -1.086466506014     6.467240864081    12.000000000000
           C         -2.527877276968    -0.098466506014     6.970240864081    12.000000000000
           N         -7.541877276968    -3.874466506014    -5.016759135919    14.003074004780
           C         -8.567877276968    -2.882466506014    -5.358759135919    12.000000000000
           C         -8.219877276968    -1.979466506014    -6.529759135919    12.000000000000
           O         -9.120877276968    -1.654466506014    -7.311759135919    15.994914619560
           C         -8.769877276968    -2.074466506014    -4.073759135919    12.000000000000
           C         -8.189877276968    -2.994466506014    -2.971759135919    12.000000000000
           C         -7.076877276968    -3.705466506014    -3.612759135919    12.000000000000
           N         -1.480877276968    -1.193466506014    -8.868759135919    14.003074004780
           C         -0.484877276968    -0.499466506014    -8.035759135919    12.000000000000
           C          0.881122723032    -0.693466506014    -8.672759135919    12.000000000000
           O          1.315122723032    -1.837466506014    -8.874759135919    15.994914619560
           C         -0.422877276968    -1.115466506014    -6.639759135919    12.000000000000
           C         -1.709877276968    -0.797466506014    -5.890759135919    12.000000000000
           C          0.859122723032    -0.684466506014    -5.924759135919    12.000000000000
           C         -2.025877276968    -1.731466506014    -4.742759135919    12.000000000000
           H         12.870122723032     0.116533493986     1.902240864081     1.007825032070
           H         10.569122723032     1.570533493986     0.952240864081     1.007825032070
           H          9.724122723032     1.495533493986     3.238240864081     1.007825032070
           H         11.303122723032     0.905533493986     3.851240864081     1.007825032070
           H         11.015122723032    -1.240466506014     2.482240864081     1.007825032070
           H          9.502122723032    -0.421466506014     1.837240864081     1.007825032070
           H          8.541122723032    -0.272466506014     4.159240864081     1.007825032070
           H          9.940122723032    -1.295466506014     4.682240864081     1.007825032070
           H          8.554122723032    -2.504466506014     2.453240864081     1.007825032070
           H          8.320122723032    -2.032466506014     5.995240864081     1.007825032070
           H          7.463122723032    -3.557466506014     6.196240864081     1.007825032070
           H          7.146122723032    -4.600466506014     2.936240864081     1.007825032070
           H          3.716122723032     8.041533493986     2.492240864081     1.007825032070
           H          4.046122723032     5.886533493986     0.446240864081     1.007825032070
           H          1.872122723032     6.327533493986     2.574240864081     1.007825032070
           H          3.314122723032     5.237533493986     2.713240864081     1.007825032070
           H          1.381122723032     3.753533493986     3.040240864081     1.007825032070
           H          1.575122723032     5.676533493986    -1.757759135919     1.007825032070
           H         -0.172877276968     4.315533493986    -2.528759135919     1.007825032070
           H         -0.795877276968     5.691533493986    -3.452759135919     1.007825032070
           H         -0.192877276968     6.228533493986    -0.025759135919     1.007825032070
           H         -2.876877276968     5.409533493986     0.852240864081     1.007825032070
           H         -0.636877276968     6.898533493986     2.267240864081     1.007825032070
           H         -0.963877276968     5.135533493986     2.271240864081     1.007825032070
           H         -2.154877276968     6.283533493986     3.004240864081     1.007825032070
           H         -1.259877276968     6.827533493986     8.162240864081     1.007825032070
           H         -3.452877276968     6.402533493986    10.164240864081     1.007825032070
           H         -2.033877276968     4.156533493986     8.577240864081     1.007825032070
           H         -4.749877276968     4.401533493986    10.060240864081     1.007825032070
           H         -3.265877276968     3.618533493986    10.724240864081     1.007825032070
           H         -4.070877276968     2.921533493986     9.284240864081     1.007825032070
           H         -4.552877276968     5.638533493986     7.813240864081     1.007825032070
           H         -4.015877276968     4.064533493986     7.180240864081     1.007825032070
           H         -3.012877276968     5.541533493986     6.885240864081     1.007825032070
           H        -10.900877276968     1.798533493986     7.831240864081     1.007825032070
           H        -11.041877276968     3.042533493986     5.042240864081     1.007825032070
           H         -8.582877276968     3.268533493986     5.241240864081     1.007825032070
           H         -8.310877276968     1.609533493986     7.161240864081     1.007825032070
           H         -9.041877276968     2.804533493986     8.287240864081     1.007825032070
           H        -10.197877276968     4.900533493986     7.248240864081     1.007825032070
           H        -10.107877276968     5.156533493986     5.462240864081     1.007825032070
           H         -8.640877276968     5.351533493986     6.439240864081     1.007825032070
           H         -6.579877276968     3.180533493986     6.533240864081     1.007825032070
           H         -6.536877276968     2.669533493986     8.265240864081     1.007825032070
           H         -7.123877276968     4.276533493986     7.801240864081     1.007825032070
           H        -10.027877276968     1.922533493986     3.392240864081     1.007825032070
           H         -9.719877276968    -1.018466506014     3.999240864081     1.007825032070
           H        -10.320877276968    -0.316466506014     2.532240864081     1.007825032070
           H         -7.737877276968    -1.840466506014     3.837240864081     1.007825032070
           H         -5.533877276968    -0.582466506014     2.280240864081     1.007825032070
           H         -5.687877276968    -2.061466506014     3.255240864081     1.007825032070
           H          1.942122723032    -0.704466506014     9.515240864081     1.007825032070
           H          4.535122723032     0.249533493986    10.768240864081     1.007825032070
           H          5.128122723032    -0.848466506014     8.684240864081     1.007825032070
           H          2.860122723032     0.679533493986     7.331240864081     1.007825032070
           H          2.964122723032    -1.104466506014     7.606240864081     1.007825032070
           H          4.105122723032    -0.319466506014     6.512240864081     1.007825032070
           H          4.814122723032     2.120533493986     8.066240864081     1.007825032070
           H          5.970122723032     0.975533493986     7.361240864081     1.007825032070
           H          6.109122723032     1.367533493986     9.096240864081     1.007825032070
           H         -4.109877276968    12.347533493986    -6.167759135919     1.007825032070
           H         -5.424877276968    11.559533493986    -5.489759135919     1.007825032070
           H         -3.533877276968    10.115533493986    -5.495759135919     1.007825032070
           H         -4.395877276968     8.223533493986    -6.887759135919     1.007825032070
           H         -5.686877276968     9.297533493986    -7.542759135919     1.007825032070
           H         -6.529877276968     9.601533493986    -5.193759135919     1.007825032070
           H         -5.145877276968     8.604533493986    -4.591759135919     1.007825032070
           H         -5.906877276968     6.718533493986    -5.896759135919     1.007825032070
           H         -7.364877276968     7.631533493986    -6.479759135919     1.007825032070
           H         -7.306877276968     7.817533493986    -3.637759135919     1.007825032070
           H         -7.558877276968     5.209533493986    -6.139759135919     1.007825032070
           H         -9.237877276968     4.985533493986    -3.050759135919     1.007825032070
           H         -7.957877276968     5.792533493986    -2.257759135919     1.007825032070
           H          3.396122723032     3.472533493986    -6.825759135919     1.007825032070
           H          2.260122723032     4.646533493986    -4.302759135919     1.007825032070
           H          2.260122723032     1.714533493986    -5.139759135919     1.007825032070
           H          0.899122723032     2.896533493986    -5.321759135919     1.007825032070
           H          2.273122723032     2.222533493986    -1.693759135919     1.007825032070
           H          3.850122723032     3.822533493986    -1.425759135919     1.007825032070
           H          3.551122723032     2.682533493986     0.588240864081     1.007825032070
           H          5.328122723032     2.618533493986     0.774240864081     1.007825032070
           H          4.560122723032     1.335533493986    -2.273759135919     1.007825032070
           H          3.791122723032    -1.355466506014    -1.308759135919     1.007825032070
           H          3.541122723032    -0.216466506014    -4.088759135919     1.007825032070
           H          2.229122723032    -0.466466506014    -2.875759135919     1.007825032070
           H          3.112122723032    -1.884466506014    -3.556759135919     1.007825032070
           H          5.512122723032    -2.875466506014    -1.205759135919     1.007825032070
           H          8.138122723032    -2.284466506014    -2.265759135919     1.007825032070
           H          8.711122723032    -4.489466506014    -1.658759135919     1.007825032070
           H          7.001122723032    -4.982466506014    -1.410759135919     1.007825032070
           H          7.028122723032    -5.196466506014     0.831240864081     1.007825032070
           H          5.271122723032    -4.130466506014    -3.421759135919     1.007825032070
           H          6.827122723032    -4.608466506014    -5.972759135919     1.007825032070
           H          5.645122723032    -6.760466506014    -6.176759135919     1.007825032070
           H          4.586122723032    -6.300466506014    -4.814759135919     1.007825032070
           H          5.165122723032    -7.584466506014    -3.068759135919     1.007825032070
           H          1.077122723032    -3.883466506014    -7.974759135919     1.007825032070
           H          0.547122723032    -6.768466506014    -8.638759135919     1.007825032070
           H         -1.577877276968    -5.274466506014    -7.005759135919     1.007825032070
           H         -0.348877276968    -8.076466506014    -6.848759135919     1.007825032070
           H         -1.757877276968    -7.625466506014    -7.888759135919     1.007825032070
           H         -1.839877276968    -7.470466506014    -6.109759135919     1.007825032070
           H          0.941122723032    -6.149466506014    -5.738759135919     1.007825032070
           H         -0.577877276968    -5.632466506014    -4.905759135919     1.007825032070
           H          0.349122723032    -4.426466506014    -5.870759135919     1.007825032070
           H          0.173122723032   -11.430466506014    -0.532759135919     1.007825032070
           H          2.565122723032    -9.947466506014     0.587240864081     1.007825032070
           H          1.733122723032    -7.980466506014    -0.775759135919     1.007825032070
           H          0.096122723032   -10.223466506014    -2.229759135919     1.007825032070
           H         -0.567877276968    -8.847466506014    -1.256759135919     1.007825032070
           H          2.655122723032   -10.446466506014    -2.419759135919     1.007825032070
           H          3.709122723032    -9.364466506014    -1.438759135919     1.007825032070
           H          2.898122723032    -8.701466506014    -2.855759135919     1.007825032070
           H          0.986122723032    -8.761466506014    -3.852759135919     1.007825032070
           H          0.470122723032    -7.317466506014    -2.879759135919     1.007825032070
           H         -0.718877276968    -8.453466506014    -3.583759135919     1.007825032070
           H          2.089122723032    -8.501466506014     2.156240864081     1.007825032070
           H          0.663122723032    -8.530466506014     4.165240864081     1.007825032070
           H         -0.775877276968    -8.485466506014     3.165240864081     1.007825032070
           H         -1.735877276968    -6.555466506014     3.350240864081     1.007825032070
           H         -1.410877276968    -4.158466506014     2.752240864081     1.007825032070
           H          0.016122723032    -4.167466506014     3.821240864081     1.007825032070
           H         -2.637877276968    -2.805466506014     3.895240864081     1.007825032070
           H         -3.177877276968    -3.008466506014     6.818240864081     1.007825032070
           H         -4.400877276968    -1.384466506014     4.494240864081     1.007825032070
           H         -3.148877276968     0.411533493986     5.081240864081     1.007825032070
           H         -2.023877276968    -0.925466506014     5.053240864081     1.007825032070
           H         -4.842877276968    -1.234466506014     7.515240864081     1.007825032070
           H         -6.069877276968    -1.709466506014     6.310240864081     1.007825032070
           H         -5.466877276968    -0.029466506014     6.304240864081     1.007825032070
           H         -3.329877276968     0.477533493986     7.479240864081     1.007825032070
           H         -1.653877276968     0.573533493986     6.883240864081     1.007825032070
           H         -2.242877276968    -0.970466506014     7.588240864081     1.007825032070
           H         -9.522877276968    -3.424466506014    -5.545759135919     1.007825032070
           H         -9.786877276968    -1.658466506014    -3.908759135919     1.007825032070
           H         -8.069877276968    -1.220466506014    -4.113759135919     1.007825032070
           H         -8.986877276968    -3.751466506014    -2.787759135919     1.007825032070
           H         -7.961877276968    -2.517466506014    -1.998759135919     1.007825032070
           H         -6.161877276968    -3.074466506014    -3.618759135919     1.007825032070
           H         -6.933877276968    -4.644466506014    -3.041759135919     1.007825032070
           H         -1.311877276968    -2.106466506014    -9.113759135919     1.007825032070
           H         -0.713877276968     0.584533493986    -7.926759135919     1.007825032070
           H         -0.358877276968    -2.219466506014    -6.774759135919     1.007825032070
           H         -2.538877276968    -0.985466506014    -6.592759135919     1.007825032070
           H         -1.760877276968     0.270533493986    -5.586759135919     1.007825032070
           H          0.813122723032     0.407533493986    -5.843759135919     1.007825032070
           H          1.804122723032    -1.005466506014    -6.408759135919     1.007825032070
           H          0.874122723032    -1.122466506014    -4.906759135919     1.007825032070
           H         -1.936877276968    -2.787466506014    -5.060759135919     1.007825032070
           H         -3.049877276968    -1.557466506014    -4.362759135919     1.007825032070
           H         -1.301877276968    -1.572466506014    -3.916759135919     1.007825032070
           H          6.917122723032    -4.681466506014     4.522240864081     1.007825032070
           H         -4.630877276968    11.813533493986    -6.293759135919     1.007825032070
           H         -4.320877276968    10.686533493986    -6.429759135919     1.007825032070
           H         -4.609877276968    11.229533493986    -6.392759135919     1.007825032070
           H         -8.459877276968     4.234533493986    -5.035759135919     1.007825032070
           H         13.108122723032     1.326533493986     0.628240864081     1.007825032070
           H         10.824122723032     3.837533493986     1.906240864081     1.007825032070
           H          5.182122723032     7.470533493986     1.816240864081     1.007825032070
           H          2.831122723032     7.466533493986    -0.952759135919     1.007825032070
           H          0.817122723032     7.130533493986    -2.415759135919     1.007825032070
           H         -3.934877276968     7.612533493986     0.778240864081     1.007825032070
           H         -2.596877276968     7.916533493986     8.566240864081     1.007825032070
           H         -1.542877276968     5.914533493986    11.563240864081     1.007825032070
           H        -12.273877276968     2.602533493986     7.065240864081     1.007825032070
           H         -5.342877276968    -3.198466506014     1.365240864081     1.007825032070
           H          2.857122723032    -1.508466506014    10.796240864081     1.007825032070
           H          3.698122723032     2.539533493986    10.300240864081     1.007825032070
           H         -4.293877276968    12.460533493986    -6.256759135919     1.007825032070
           H         -2.141877276968     9.868533493986    -7.432759135919     1.007825032070
           H          2.483122723032     4.909533493986    -6.666759135919     1.007825032070
           H          4.596122723032     4.335533493986    -3.647759135919     1.007825032070
           H          5.570122723032     3.398533493986    -1.512759135919     1.007825032070
           H          4.698122723032    -4.455466506014    -7.226759135919     1.007825032070
           H          2.251122723032    -5.119466506014    -8.426759135919     1.007825032070
           H         -1.194877276968    -5.888466506014   -10.041759135919     1.007825032070
           H          1.728122723032   -12.123466506014    -0.099759135919     1.007825032070
           H         -5.208877276968    -4.404466506014     6.490240864081     1.007825032070
           H         -7.308877276968    -4.608466506014    -5.685759135919     1.007825032070
           H         -7.172877276968    -1.662466506014    -6.645759135919     1.007825032070
           H         -2.294877276968    -0.719466506014    -9.259759135919     1.007825032070
           H          1.459122723032     0.209533493986    -8.918759135919     1.007825032070

  Running in c1 symmetry.

  Rotational constants: A =      0.00016  B =      0.00014  C =      0.00013 [cm^-1]
  Rotational constants: A =      4.89563  B =      4.12798  C =      3.75976 [MHz]
  Nuclear repulsion = 37933.232733176853799

  Charge       = 0
  Multiplicity = 1
  Electrons    = 1158
  Nalpha       = 579
  Nbeta        = 579

  ==> Algorithm <==

  SCF Algorithm Type is DF.
  DIIS enabled.
  MOM disabled.
  Fractional occupation disabled.
  Guess Type is SAD.
  Energy threshold   = 1.00e-06
  Density threshold  = 1.00e-06
  Integral threshold = 0.00e+00

  ==> Primary Basis <==

  Basis Set: CC-PVDZ
    Blend: CC-PVDZ
    Number of shells: 1434
    Number of basis function: 2982
    Number of Cartesian functions: 3130
    Spherical Harmonics?: true
    Max angular momentum: 2

   => Loading Basis Set <=

    Name: (CC-PVDZ AUX)
    Role: JKFIT
    Keyword: DF_BASIS_SCF
    atoms 1, 8, 10-12, 20, 24, 29, 36, 44, 48, 52, 59, 66, 68-70, 78, 82, 87, 95, 103, 110, 118, 122, 126, 134, 141                                                                                                                                                                                      entry N          line   171 file /theoryfs2/ds/schieber/Gits/mspsi4/objdir3/stage/usr/local/psi4/share/psi4/basis/cc-pvdz-jkfit.gbs 
    atoms 2-3, 5-7, 9, 13-14, 16-17, 21-22, 25-26, 28, 30-31, 33-35, 37-38, 40-43, 45-46, 49-50, 53-54, 56-58, 60-61, 63-65, 67, 71-72, 74-75, 79-80, 83-84, 86, 88-89, 91-92, 96-97, 99-100, 104-105, 107-109, 111-112, 114-117, 119-120, 123-124, 127-128, 130-133, 135-136, 138-140, 142-143, 145-148 entry C          line   121 file /theoryfs2/ds/schieber/Gits/mspsi4/objdir3/stage/usr/local/psi4/share/psi4/basis/cc-pvdz-jkfit.gbs 
    atoms 4, 15, 18-19, 23, 27, 32, 39, 47, 51, 55, 62, 73, 76-77, 81, 85, 90, 93-94, 98, 101-102, 106, 113, 121, 125, 129, 137, 144                                                                                                                                                                     entry O          line   221 file /theoryfs2/ds/schieber/Gits/mspsi4/objdir3/stage/usr/local/psi4/share/psi4/basis/cc-pvdz-jkfit.gbs 
    atoms 149-330                                                                                                                                                                                                                                                                                        entry H          line    51 file /theoryfs2/ds/schieber/Gits/mspsi4/objdir3/stage/usr/local/psi4/share/psi4/basis/cc-pvdz-jkfit.gbs 

  ==> Pre-Iterations <==

   -------------------------------------------------------
    Irrep   Nso     Nmo     Nalpha   Nbeta   Ndocc  Nsocc
   -------------------------------------------------------
     A       2982    2982       0       0       0       0
   -------------------------------------------------------
    Total    2982    2982     579     579     579       0
   -------------------------------------------------------

  ==> Integral Setup <==

  ==> DFJK: Density-Fitted J/K Matrices <==

    J tasked:                  Yes
    K tasked:                  Yes
    wK tasked:                  No
    OpenMP threads:              6
    Integrals threads:           6
    Memory (MB):             42915
    Algorithm:                Disk
    Integral Cache:           NONE
    Schwarz Cutoff:          1E-12
    Fitting Condition:       1E-12

   => Auxiliary Basis Set <=

  Basis Set: (CC-PVDZ AUX)
    Blend: CC-PVDZ-JKFIT
    Number of shells: 5190
    Number of basis function: 14546
    Number of Cartesian functions: 16538
    Spherical Harmonics?: true
    Max angular momentum: 3

  Minimum eigenvalue in the overlap matrix is 7.2800476063E-05.
  Using Symmetric Orthogonalization.

  SCF Guess: Superposition of Atomic Densities via on-the-fly atomic UHF.

  ==> Iterations <==

                           Total Energy        Delta E     RMS |[F,P]|

   @DF-RHF iter   0: -7341.04754359534672   -7.34105e+03   2.00476e-02 
   @DF-RHF iter   1: -7269.97531057423839    7.10722e+01   2.39590e-03 
   @DF-RHF iter   2: -7259.24508543331831    1.07302e+01   2.60992e-03 DIIS
   @DF-RHF iter   3: -7255.88814327564432    3.35694e+00   3.55293e-03 DIIS
   @DF-RHF iter   4: -7273.93997654008035   -1.80518e+01   1.24409e-03 DIIS
   @DF-RHF iter   5: -7274.63584974285823   -6.95873e-01   7.44303e-04 DIIS
   @DF-RHF iter   6: -7274.92940208163782   -2.93552e-01   5.03836e-04 DIIS
   @DF-RHF iter   7: -7274.98633993615204   -5.69379e-02   5.11746e-04 DIIS
   @DF-RHF iter   8: -7275.12653255181522   -1.40193e-01   3.75350e-04 DIIS
   @DF-RHF iter   9: -7275.05423221061847    7.23003e-02   4.37236e-04 DIIS
   @DF-RHF iter  10: -7275.11189497376108   -5.76628e-02   3.57759e-04 DIIS
   @DF-RHF iter  11: -7275.23793116908928   -1.26036e-01   2.04375e-04 DIIS
