
    -----------------------------------------------------------------------
          Psi4: An Open-Source Ab Initio Electronic Structure Package
                               Psi4 1.2a1.dev875 

                         Git: Rev {symm_JK} 0ea9481 dirty


    R. M. Parrish, L. A. Burns, D. G. A. Smith, A. C. Simmonett,
    A. E. DePrince III, E. G. Hohenstein, U. Bozkaya, A. Yu. Sokolov,
    R. Di Remigio, R. M. Richard, J. F. Gonthier, A. M. James,
    H. R. McAlexander, A. Kumar, M. Saitow, X. Wang, B. P. Pritchard,
    P. Verma, H. F. Schaefer III, K. Patkowski, R. A. King, E. F. Valeev,
    F. A. Evangelista, J. M. Turney, T. D. Crawford, and C. D. Sherrill,
    J. Chem. Theory Comput. 13(7) pp 3185--3197 (2017).
    (doi: 10.1021/acs.jctc.7b00174)

    -----------------------------------------------------------------------


    Psi4 started on: Tuesday, 06 March 2018 01:42AM

    Process ID:  11278
    PSIDATADIR: /theoryfs2/ds/schieber/Gits/mspsi4/objdir3/stage/usr/local/psi4/share/psi4
    Memory:     500.0 MiB
    Threads:    6
    
  ==> Input File <==

--------------------------------------------------------------------------
memory 60 Gb

molecule protein_63 {
0 1
 N   18.626  30.444   6.627
 C   17.853  29.516   5.837
 C   16.945  30.292   4.886
 O   15.843  30.678   5.237
 C   17.047  28.642   6.811
 C   16.316  27.513   6.146
 O   16.236  27.458   4.905
 O   15.762  26.696   6.882
 N    4.567  24.042   8.795
 C    4.886  22.777   8.145
 C    6.265  22.720   7.521
 O    6.723  23.689   6.900
 N   17.407  27.054  -1.437
 C   17.227  26.751  -0.026
 C   18.555  26.446   0.653
 O   19.003  25.309   0.692
 C   16.258  25.572   0.084
 C   15.759  25.336   1.493
 O   16.399  25.780   2.453
 O   14.731  24.675   1.645
 N   19.106  26.199   3.688
 C   18.957  25.372   4.876
 C   18.845  23.903   4.520
 O   18.660  23.054   5.417
 N   20.536  20.559   2.918
 C   21.779  19.912   2.496
 C   21.693  19.374   1.107
 O   22.642  19.502   0.361
 C   22.169  18.827   3.447
 C   22.272  19.337   4.844
 O   22.714  20.482   5.029
 O   21.836  18.647   5.778
 H   18.180  30.990   7.295
 H   18.510  28.835   5.249
 H   16.336  29.276   7.377
 H   17.778  28.186   7.516
 H   15.845  26.702   7.843
 H    4.436  24.871   8.195
 H    4.744  21.930   8.802
 H    4.143  22.632   7.335
 H   17.860  26.421  -2.023
 H   16.724  27.595   0.500
 H   16.724  24.663  -0.337
 H   15.363  25.845  -0.519
 H   16.737  25.171   3.109
 H   18.314  26.771   3.377
 H   18.015  25.631   5.391
 H   19.792  25.567   5.577
 H   19.976  20.073   3.597
 H   22.602  20.664   2.537
 H   23.175  18.459   3.144
 H   21.465  17.966   3.392
 H   21.492  17.752   5.634
 H   19.646  30.419   6.619
 H   17.295  30.415   3.850
 H    4.454  24.117   9.806
 H    6.887  21.864   7.822
 H   16.947  27.858  -1.864
 H   19.060  27.284   1.155
 H   20.034  26.347   3.290
 H   18.824  23.654   3.449
 H   20.197  21.395   2.443
 H   20.727  18.956   0.786
}

set {
basis cc-pvqz
scf_type df
guess sad
DF_SCF_TYPE DFJK
}

energy('HF')
--------------------------------------------------------------------------

  Memory set to  55.879 GiB by Python driver.

*** tstart() called on hex15
*** at Tue Mar  6 01:42:06 2018

   => Loading Basis Set <=

    Name: CC-PVQZ
    Role: ORBITAL
    Keyword: BASIS
    atoms 1, 9, 13, 21, 25                                   entry N          line   289 file /theoryfs2/ds/schieber/Gits/mspsi4/objdir3/stage/usr/local/psi4/share/psi4/basis/cc-pvqz.gbs 
    atoms 2-3, 5-6, 10-11, 14-15, 17-18, 22-23, 26-27, 29-30 entry C          line   239 file /theoryfs2/ds/schieber/Gits/mspsi4/objdir3/stage/usr/local/psi4/share/psi4/basis/cc-pvqz.gbs 
    atoms 4, 7-8, 12, 16, 19-20, 24, 28, 31-32               entry O          line   339 file /theoryfs2/ds/schieber/Gits/mspsi4/objdir3/stage/usr/local/psi4/share/psi4/basis/cc-pvqz.gbs 
    atoms 33-63                                              entry H          line    22 file /theoryfs2/ds/schieber/Gits/mspsi4/objdir3/stage/usr/local/psi4/share/psi4/basis/cc-pvqz.gbs 


         ---------------------------------------------------------
                                   SCF
            by Justin Turney, Rob Parrish, Andy Simmonett
                             and Daniel Smith
                              RHF Reference
                        6 Threads,  57220 MiB Core
         ---------------------------------------------------------

  ==> Geometry <==

    Molecular point group: c1
    Full point group: C1

    Geometry (in Angstrom), charge = 0, multiplicity = 1:

       Center              X                  Y                   Z               Mass       
    ------------   -----------------  -----------------  -----------------  -----------------
           N          1.657504219370     5.864960045694     2.581113844373    14.003074004780
           C          0.884504219370     4.936960045694     1.791113844373    12.000000000000
           C         -0.023495780630     5.712960045694     0.840113844373    12.000000000000
           O         -1.125495780630     6.098960045694     1.191113844373    15.994914619560
           C          0.078504219370     4.062960045694     2.765113844373    12.000000000000
           C         -0.652495780630     2.933960045694     2.100113844373    12.000000000000
           O         -0.732495780630     2.878960045694     0.859113844373    15.994914619560
           O         -1.206495780630     2.116960045694     2.836113844373    15.994914619560
           N        -12.401495780630    -0.537039954306     4.749113844373    14.003074004780
           C        -12.082495780630    -1.802039954306     4.099113844373    12.000000000000
           C        -10.703495780630    -1.859039954306     3.475113844373    12.000000000000
           O        -10.245495780630    -0.890039954306     2.854113844373    15.994914619560
           N          0.438504219370     2.474960045694    -5.482886155627    14.003074004780
           C          0.258504219370     2.171960045694    -4.071886155627    12.000000000000
           C          1.586504219370     1.866960045694    -3.392886155627    12.000000000000
           O          2.034504219370     0.729960045694    -3.353886155627    15.994914619560
           C         -0.710495780630     0.992960045694    -3.961886155627    12.000000000000
           C         -1.209495780630     0.756960045694    -2.552886155627    12.000000000000
           O         -0.569495780630     1.200960045694    -1.592886155627    15.994914619560
           O         -2.237495780630     0.095960045694    -2.400886155627    15.994914619560
           N          2.137504219370     1.619960045694    -0.357886155627    14.003074004780
           C          1.988504219370     0.792960045694     0.830113844373    12.000000000000
           C          1.876504219370    -0.676039954306     0.474113844373    12.000000000000
           O          1.691504219370    -1.525039954306     1.371113844373    15.994914619560
           N          3.567504219370    -4.020039954306    -1.127886155627    14.003074004780
           C          4.810504219370    -4.667039954306    -1.549886155627    12.000000000000
           C          4.724504219370    -5.205039954306    -2.938886155627    12.000000000000
           O          5.673504219370    -5.077039954306    -3.684886155627    15.994914619560
           C          5.200504219370    -5.752039954306    -0.598886155627    12.000000000000
           C          5.303504219370    -5.242039954306     0.798113844373    12.000000000000
           O          5.745504219370    -4.097039954306     0.983113844373    15.994914619560
           O          4.867504219370    -5.932039954306     1.732113844373    15.994914619560
           H          1.211504219370     6.410960045694     3.249113844373     1.007825032070
           H          1.541504219370     4.255960045694     1.203113844373     1.007825032070
           H         -0.632495780630     4.696960045694     3.331113844373     1.007825032070
           H          0.809504219370     3.606960045694     3.470113844373     1.007825032070
           H         -1.123495780630     2.122960045694     3.797113844373     1.007825032070
           H        -12.532495780630     0.291960045694     4.149113844373     1.007825032070
           H        -12.224495780630    -2.649039954306     4.756113844373     1.007825032070
           H        -12.825495780630    -1.947039954306     3.289113844373     1.007825032070
           H          0.891504219370     1.841960045694    -6.068886155627     1.007825032070
           H         -0.244495780630     3.015960045694    -3.545886155627     1.007825032070
           H         -0.244495780630     0.083960045694    -4.382886155627     1.007825032070
           H         -1.605495780630     1.265960045694    -4.564886155627     1.007825032070
           H         -0.231495780630     0.591960045694    -0.936886155627     1.007825032070
           H          1.345504219370     2.191960045694    -0.668886155627     1.007825032070
           H          1.046504219370     1.051960045694     1.345113844373     1.007825032070
           H          2.823504219370     0.987960045694     1.531113844373     1.007825032070
           H          3.007504219370    -4.506039954306    -0.448886155627     1.007825032070
           H          5.633504219370    -3.915039954306    -1.508886155627     1.007825032070
           H          6.206504219370    -6.120039954306    -0.901886155627     1.007825032070
           H          4.496504219370    -6.613039954306    -0.653886155627     1.007825032070
           H          4.523504219370    -6.827039954306     1.588113844373     1.007825032070
           H          2.677504219370     5.839960045694     2.573113844373     1.007825032070
           H          0.326504219370     5.835960045694    -0.195886155627     1.007825032070
           H        -12.514495780630    -0.462039954306     5.760113844373     1.007825032070
           H        -10.081495780630    -2.715039954306     3.776113844373     1.007825032070
           H         -0.021495780630     3.278960045694    -5.909886155627     1.007825032070
           H          2.091504219370     2.704960045694    -2.890886155627     1.007825032070
           H          3.065504219370     1.767960045694    -0.755886155627     1.007825032070
           H          1.855504219370    -0.925039954306    -0.596886155627     1.007825032070
           H          3.228504219370    -3.184039954306    -1.602886155627     1.007825032070
           H          3.758504219370    -5.623039954306    -3.259886155627     1.007825032070

  Running in c1 symmetry.

  Rotational constants: A =      0.00221  B =      0.00111  C =      0.00093 [cm^-1]
  Rotational constants: A =     66.16714  B =     33.30218  C =     27.81539 [MHz]
  Nuclear repulsion = 2982.748493552713626

  Charge       = 0
  Multiplicity = 1
  Electrons    = 250
  Nalpha       = 125
  Nbeta        = 125

  ==> Algorithm <==

  SCF Algorithm Type is DF.
  DIIS enabled.
  MOM disabled.
  Fractional occupation disabled.
  Guess Type is SAD.
  Energy threshold   = 1.00e-06
  Density threshold  = 1.00e-06
  Integral threshold = 0.00e+00

  ==> Primary Basis <==

  Basis Set: CC-PVQZ
    Blend: CC-PVQZ
    Number of shells: 790
    Number of basis function: 2690
    Number of Cartesian functions: 3325
    Spherical Harmonics?: true
    Max angular momentum: 4

   => Loading Basis Set <=

    Name: (CC-PVQZ AUX)
    Role: JKFIT
    Keyword: DF_BASIS_SCF
    atoms 1, 9, 13, 21, 25                                   entry N          line   195 file /theoryfs2/ds/schieber/Gits/mspsi4/objdir3/stage/usr/local/psi4/share/psi4/basis/cc-pvqz-jkfit.gbs 
    atoms 2-3, 5-6, 10-11, 14-15, 17-18, 22-23, 26-27, 29-30 entry C          line   137 file /theoryfs2/ds/schieber/Gits/mspsi4/objdir3/stage/usr/local/psi4/share/psi4/basis/cc-pvqz-jkfit.gbs 
    atoms 4, 7-8, 12, 16, 19-20, 24, 28, 31-32               entry O          line   253 file /theoryfs2/ds/schieber/Gits/mspsi4/objdir3/stage/usr/local/psi4/share/psi4/basis/cc-pvqz-jkfit.gbs 
    atoms 33-63                                              entry H          line    51 file /theoryfs2/ds/schieber/Gits/mspsi4/objdir3/stage/usr/local/psi4/share/psi4/basis/cc-pvqz-jkfit.gbs 

  ==> Pre-Iterations <==

   -------------------------------------------------------
    Irrep   Nso     Nmo     Nalpha   Nbeta   Ndocc  Nsocc
   -------------------------------------------------------
     A       2690    2690       0       0       0       0
   -------------------------------------------------------
    Total    2690    2690     125     125     125       0
   -------------------------------------------------------

  ==> Integral Setup <==

  ==> DFJK: Density-Fitted J/K Matrices <==

    J tasked:                  Yes
    K tasked:                  Yes
    wK tasked:                  No
    OpenMP threads:              6
    Integrals threads:           6
    Memory (MB):             42915
    Algorithm:                Core
    Integral Cache:           NONE
    Schwarz Cutoff:          1E-12
    Fitting Condition:       1E-12

   => Auxiliary Basis Set <=

  Basis Set: (CC-PVQZ AUX)
    Blend: CC-PVQZ-JKFIT
    Number of shells: 1299
    Number of basis function: 4973
    Number of Cartesian functions: 6590
    Spherical Harmonics?: true
    Max angular momentum: 5

  Minimum eigenvalue in the overlap matrix is 4.3598176973E-05.
  Using Symmetric Orthogonalization.

  SCF Guess: Superposition of Atomic Densities via on-the-fly atomic UHF.

  ==> Iterations <==

                           Total Energy        Delta E     RMS |[F,P]|

   @DF-RHF iter   0: -1731.79480089951039   -1.73179e+03   9.76579e-03 
   @DF-RHF iter   1: -1719.13662236848972    1.26582e+01   1.23299e-03 
   @DF-RHF iter   2: -1719.85869415519278   -7.22072e-01   8.89687e-04 DIIS
   @DF-RHF iter   3: -1720.20672371506726   -3.48030e-01   1.89326e-04 DIIS
   @DF-RHF iter   4: -1720.24545368917006   -3.87300e-02   6.80708e-05 DIIS
   @DF-RHF iter   5: -1720.25154749096873   -6.09380e-03   2.86339e-05 DIIS
   @DF-RHF iter   6: -1720.25304829036691   -1.50080e-03   1.40434e-05 DIIS
   @DF-RHF iter   7: -1720.25343979230638   -3.91502e-04   5.91245e-06 DIIS
   @DF-RHF iter   8: -1720.25351645651745   -7.66642e-05   2.86275e-06 DIIS
   @DF-RHF iter   9: -1720.25353682654713   -2.03700e-05   1.25225e-06 DIIS
   @DF-RHF iter  10: -1720.25354204269433   -5.21615e-06   5.94675e-07 DIIS
   @DF-RHF iter  11: -1720.25354326877004   -1.22608e-06   2.48488e-07 DIIS
   @DF-RHF iter  12: -1720.25354345782353   -1.89053e-07   1.09247e-07 DIIS

  ==> Post-Iterations <==

    Orbital Energies (a.u.)
    -----------------------

    Doubly Occupied:                                                      

       1A    -20.641823     2A    -20.633966     3A    -20.600311  
       4A    -20.565919     5A    -20.557819     6A    -20.555997  
       7A    -20.555873     8A    -20.552822     9A    -20.536723  
      10A    -20.517658    11A    -20.512737    12A    -15.555869  
      13A    -15.549717    14A    -15.546555    15A    -15.541282  
      16A    -15.540679    17A    -11.394410    18A    -11.381185  
      19A    -11.364195    20A    -11.343268    21A    -11.335875  
      22A    -11.334456    23A    -11.329668    24A    -11.325258  
      25A    -11.294776    26A    -11.288987    27A    -11.279816  
      28A    -11.274752    29A    -11.272192    30A    -11.264278  
      31A    -11.262738    32A    -11.237022    33A     -1.526284  
      34A     -1.511812    35A     -1.497873    36A     -1.396375  
      37A     -1.391247    38A     -1.390356    39A     -1.368770  
      40A     -1.366567    41A     -1.355786    42A     -1.338815  
      43A     -1.331273    44A     -1.212687    45A     -1.201374  
      46A     -1.192625    47A     -1.184145    48A     -1.167441  
      49A     -1.054925    50A     -1.054468    51A     -1.042690  
      52A     -0.965975    53A     -0.963751    54A     -0.948843  
      55A     -0.939655    56A     -0.936470    57A     -0.905437  
      58A     -0.890163    59A     -0.874254    60A     -0.809239  
      61A     -0.801858    62A     -0.798251    63A     -0.794869  
      64A     -0.793471    65A     -0.746735    66A     -0.733252  
      67A     -0.731330    68A     -0.717715    69A     -0.711502  
      70A     -0.705135    71A     -0.697842    72A     -0.694376  
      73A     -0.692591    74A     -0.687190    75A     -0.684471  
      76A     -0.679195    77A     -0.665878    78A     -0.664923  
      79A     -0.661437    80A     -0.657970    81A     -0.657654  
      82A     -0.652904    83A     -0.647897    84A     -0.642506  
      85A     -0.634104    86A     -0.630258    87A     -0.629248  
      88A     -0.628583    89A     -0.625068    90A     -0.621878  
      91A     -0.609720    92A     -0.608059    93A     -0.589516  
      94A     -0.576592    95A     -0.572571    96A     -0.566850  
      97A     -0.561698    98A     -0.558080    99A     -0.549603  
     100A     -0.548124   101A     -0.533011   102A     -0.530808  
     103A     -0.529782   104A     -0.520554   105A     -0.514478  
     106A     -0.505669   107A     -0.500834   108A     -0.488665  
     109A     -0.487301   110A     -0.473237   111A     -0.461344  
     112A     -0.459060   113A     -0.455979   114A     -0.447763  
     115A     -0.443832   116A     -0.442873   117A     -0.440275  
     118A     -0.439509   119A     -0.434433   120A     -0.432462  
     121A     -0.385649   122A     -0.381394   123A     -0.377164  
     124A     -0.375967   125A     -0.368637  

    Virtual:                                                              

     126A      0.079078   127A      0.082833   128A      0.086487  
     129A      0.094940   130A      0.098583   131A      0.102384  
     132A      0.104723   133A      0.111438   134A      0.119223  
     135A      0.122813   136A      0.125992   137A      0.132466  
     138A      0.135158   139A      0.136913   140A      0.140764  
     141A      0.141108   142A      0.142619   143A      0.146288  
     144A      0.150333   145A      0.152910   146A      0.156400  
     147A      0.159269   148A      0.163429   149A      0.164893  
     150A      0.170955   151A      0.175213   152A      0.178153  
     153A      0.179943   154A      0.186620   155A      0.190449  
     156A      0.194334   157A      0.198277   158A      0.202818  
     159A      0.205119   160A      0.206058   161A      0.217501  
     162A      0.224876   163A      0.239922   164A      0.244239  
     165A      0.245648   166A      0.254129   167A      0.258195  
     168A      0.260087   169A      0.263266   170A      0.271200  
     171A      0.277644   172A      0.281505   173A      0.281877  
     174A      0.283163   175A      0.286017   176A      0.289771  
     177A      0.290849   178A      0.297244   179A      0.301002  
     180A      0.312432   181A      0.317656   182A      0.319901  
     183A      0.324013   184A      0.325418   185A      0.330519  
     186A      0.331944   187A      0.338460   188A      0.339720  
     189A      0.343408   190A      0.347986   191A      0.353499  
     192A      0.354936   193A      0.360120   194A      0.362432  
     195A      0.365984   196A      0.369640   197A      0.371082  
     198A      0.379416   199A      0.381377   200A      0.381791  
     201A      0.384813   202A      0.388318   203A      0.391979  
     204A      0.397395   205A      0.401402   206A      0.403135  
     207A      0.404362   208A      0.408551   209A      0.413947  
     210A      0.416928   211A      0.421981   212A      0.426310  
     213A      0.427395   214A      0.429451   215A      0.432269  
     216A      0.434441   217A      0.437531   218A      0.439851  
     219A      0.440508   220A      0.442345   221A      0.446977  
     222A      0.447894   223A      0.451599   224A      0.454888  
     225A      0.459780   226A      0.463621   227A      0.467476  
     228A      0.467607   229A      0.469233   230A      0.472311  
     231A      0.475317   232A      0.477685   233A      0.480149  
     234A      0.481093   235A      0.483896   236A      0.485966  
     237A      0.486419   238A      0.488024   239A      0.493230  
     240A      0.495745   241A      0.502074   242A      0.504138  
     243A      0.506574   244A      0.508308   245A      0.509498  
     246A      0.510168   247A      0.514428   248A      0.516909  
     249A      0.519285   250A      0.522190   251A      0.523736  
     252A      0.527360   253A      0.527442   254A      0.531599  
     255A      0.533533   256A      0.535402   257A      0.539831  
     258A      0.541986   259A      0.543606   260A      0.550654  
     261A      0.555283   262A      0.556119   263A      0.557386  
     264A      0.559947   265A      0.561547   266A      0.564437  
     267A      0.566890   268A      0.569705   269A      0.571875  
     270A      0.575053   271A      0.576515   272A      0.580645  
     273A      0.582639   274A      0.585696   275A      0.587700  
     276A      0.589324   277A      0.593841   278A      0.596862  
     279A      0.598951   280A      0.605253   281A      0.606657  
     282A      0.608720   283A      0.611351   284A      0.615879  
     285A      0.616239   286A      0.624917   287A      0.626395  
     288A      0.630397   289A      0.637472   290A      0.646468  
     291A      0.649056   292A      0.650995   293A      0.653091  
     294A      0.654425   295A      0.654660   296A      0.659889  
     297A      0.665045   298A      0.667631   299A      0.667766  
     300A      0.670185   301A      0.673332   302A      0.673674  
     303A      0.679269   304A      0.683591   305A      0.685291  
     306A      0.686538   307A      0.692380   308A      0.699095  
     309A      0.700621   310A      0.704613   311A      0.706890  
     312A      0.710670   313A      0.711261   314A      0.712211  
     315A      0.719773   316A      0.724625   317A      0.726535  
     318A      0.728385   319A      0.735043   320A      0.737408  
     321A      0.737437   322A      0.742283   323A      0.746170  
     324A      0.751010   325A      0.754379   326A      0.757620  
     327A      0.758642   328A      0.760565   329A      0.765105  
     330A      0.765911   331A      0.772338   332A      0.773239  
     333A      0.776892   334A      0.781493   335A      0.790142  
     336A      0.793285   337A      0.795282   338A      0.796839  
     339A      0.798664   340A      0.809531   341A      0.812035  
     342A      0.814848   343A      0.819743   344A      0.825005  
     345A      0.827266   346A      0.828949   347A      0.832316  
     348A      0.833954   349A      0.841670   350A      0.845250  
     351A      0.850977   352A      0.854633   353A      0.855919  
     354A      0.859405   355A      0.863574   356A      0.866422  
     357A      0.870996   358A      0.876484   359A      0.876744  
     360A      0.880906   361A      0.883112   362A      0.888466  
     363A      0.889279   364A      0.889502   365A      0.896978  
     366A      0.899342   367A      0.904561   368A      0.908266  
     369A      0.910943   370A      0.912984   371A      0.917740  
     372A      0.920372   373A      0.924393   374A      0.926294  
     375A      0.932728   376A      0.937243   377A      0.941329  
     378A      0.941844   379A      0.945129   380A      0.946950  
     381A      0.950126   382A      0.952038   383A      0.952428  
     384A      0.958173   385A      0.960422   386A      0.964241  
     387A      0.966898   388A      0.969396   389A      0.971139  
     390A      0.972035   391A      0.977947   392A      0.982863  
     393A      0.984688   394A      0.987139   395A      0.988870  
     396A      0.990186   397A      0.992470   398A      0.996268  
     399A      1.000538   400A      1.003539   401A      1.007123  
     402A      1.011390   403A      1.015267   404A      1.020179  
     405A      1.024247   406A      1.025871   407A      1.029805  
     408A      1.031908   409A      1.032534   410A      1.033627  
     411A      1.037070   412A      1.037690   413A      1.038129  
     414A      1.042223   415A      1.044260   416A      1.047545  
     417A      1.050407   418A      1.053783   419A      1.058793  
     420A      1.062872   421A      1.063650   422A      1.066099  
     423A      1.072556   424A      1.078000   425A      1.078927  
     426A      1.080383   427A      1.084349   428A      1.088070  
     429A      1.090547   430A      1.093469   431A      1.098891  
     432A      1.101853   433A      1.102544   434A      1.105020  
     435A      1.108230   436A      1.109927   437A      1.114431  
     438A      1.115340   439A      1.121491   440A      1.123422  
     441A      1.124641   442A      1.126197   443A      1.133078  
     444A      1.135662   445A      1.139174   446A      1.140166  
     447A      1.144302   448A      1.151300   449A      1.153320  
     450A      1.154587   451A      1.157456   452A      1.160790  
     453A      1.165861   454A      1.167604   455A      1.167706  
     456A      1.171544   457A      1.173112   458A      1.173751  
     459A      1.175692   460A      1.182286   461A      1.187678  
     462A      1.190435   463A      1.194402   464A      1.195877  
     465A      1.198859   466A      1.202372   467A      1.204201  
     468A      1.206732   469A      1.210492   470A      1.211394  
     471A      1.217975   472A      1.223736   473A      1.231233  
     474A      1.233871   475A      1.234668   476A      1.235889  
     477A      1.241921   478A      1.242420   479A      1.248369  
     480A      1.248573   481A      1.252139   482A      1.254602  
     483A      1.257326   484A      1.263008   485A      1.268486  
     486A      1.269820   487A      1.275953   488A      1.279237  
     489A      1.283793   490A      1.283970   491A      1.287206  
     492A      1.291396   493A      1.299843   494A      1.302625  
     495A      1.306508   496A      1.308033   497A      1.310510  
     498A      1.313527   499A      1.315499   500A      1.322115  
     501A      1.328515   502A      1.329195   503A      1.332044  
     504A      1.333409   505A      1.337088   506A      1.346358  
     507A      1.351971   508A      1.352812   509A      1.358032  
     510A      1.362541   511A      1.363941   512A      1.371146  
     513A      1.374166   514A      1.380224   515A      1.383895  
     516A      1.389143   517A      1.394942   518A      1.401459  
     519A      1.404318   520A      1.406374   521A      1.410186  
     522A      1.418829   523A      1.424530   524A      1.431943  
     525A      1.436133   526A      1.440934   527A      1.447966  
     528A      1.455275   529A      1.457380   530A      1.464685  
     531A      1.474637   532A      1.479714   533A      1.486934  
     534A      1.488161   535A      1.494100   536A      1.497524  
     537A      1.503059   538A      1.503121   539A      1.507172  
     540A      1.509519   541A      1.510701   542A      1.512840  
     543A      1.519895   544A      1.524446   545A      1.525052  
     546A      1.527232   547A      1.537582   548A      1.538129  
     549A      1.544506   550A      1.545022   551A      1.549805  
     552A      1.563853   553A      1.568782   554A      1.575902  
     555A      1.579451   556A      1.585236   557A      1.586751  
     558A      1.593178   559A      1.597078   560A      1.597267  
     561A      1.603405   562A      1.609394   563A      1.610296  
     564A      1.620268   565A      1.621879   566A      1.626755  
     567A      1.628510   568A      1.630123   569A      1.634785  
     570A      1.642834   571A      1.650851   572A      1.654640  
     573A      1.656404   574A      1.658977   575A      1.663307  
     576A      1.671443   577A      1.674190   578A      1.682610  
     579A      1.683736   580A      1.685593   581A      1.689424  
     582A      1.695259   583A      1.701098   584A      1.708568  
     585A      1.708656   586A      1.719339   587A      1.723782  
     588A      1.726477   589A      1.730903   590A      1.734000  
     591A      1.735615   592A      1.743382   593A      1.747678  
     594A      1.751636   595A      1.754899   596A      1.757629  
     597A      1.762836   598A      1.767755   599A      1.768991  
     600A      1.772002   601A      1.776414   602A      1.781754  
     603A      1.783141   604A      1.788315   605A      1.788492  
     606A      1.791227   607A      1.800113   608A      1.801883  
     609A      1.806762   610A      1.810368   611A      1.817694  
     612A      1.820515   613A      1.822299   614A      1.830202  
     615A      1.831122   616A      1.839693   617A      1.840378  
     618A      1.841080   619A      1.846797   620A      1.849375  
     621A      1.859836   622A      1.863865   623A      1.868617  
     624A      1.869838   625A      1.874191   626A      1.875052  
     627A      1.887316   628A      1.893252   629A      1.902813  
     630A      1.906407   631A      1.907190   632A      1.910204  
     633A      1.917403   634A      1.925006   635A      1.927276  
     636A      1.930463   637A      1.935167   638A      1.936710  
     639A      1.942151   640A      1.943291   641A      1.945533  
     642A      1.950440   643A      1.955475   644A      1.956756  
     645A      1.960301   646A      1.961244   647A      1.966058  
     648A      1.974043   649A      1.975448   650A      1.985844  
     651A      1.989965   652A      1.993367   653A      1.994381  
     654A      1.997008   655A      1.997479   656A      2.000978  
     657A      2.006069   658A      2.011138   659A      2.015493  
     660A      2.024541   661A      2.028901   662A      2.031171  
     663A      2.036132   664A      2.038235   665A      2.041173  
     666A      2.044987   667A      2.047929   668A      2.052520  
     669A      2.055524   670A      2.059456   671A      2.062885  
     672A      2.065480   673A      2.068848   674A      2.073127  
     675A      2.074699   676A      2.076253   677A      2.082685  
     678A      2.083265   679A      2.085442   680A      2.088612  
     681A      2.091120   682A      2.093614   683A      2.095312  
     684A      2.100006   685A      2.106042   686A      2.106564  
     687A      2.110787   688A      2.113598   689A      2.118309  
     690A      2.120040   691A      2.124632   692A      2.129103  
     693A      2.131654   694A      2.132444   695A      2.135204  
     696A      2.146383   697A      2.148334   698A      2.150690  
     699A      2.154696   700A      2.161987   701A      2.166221  
     702A      2.167034   703A      2.171013   704A      2.171794  
     705A      2.175854   706A      2.177789   707A      2.183894  
     708A      2.186311   709A      2.192387   710A      2.196254  
     711A      2.199791   712A      2.201915   713A      2.205861  
     714A      2.209235   715A      2.212794   716A      2.216138  
     717A      2.220498   718A      2.225148   719A      2.226946  
     720A      2.227225   721A      2.232660   722A      2.238923  
     723A      2.242122   724A      2.245148   725A      2.246002  
     726A      2.248308   727A      2.253967   728A      2.258335  
     729A      2.263072   730A      2.263759   731A      2.267854  
     732A      2.268051   733A      2.270487   734A      2.276534  
     735A      2.280703   736A      2.281379   737A      2.282988  
     738A      2.290348   739A      2.294286   740A      2.296380  
     741A      2.297841   742A      2.302103   743A      2.303789  
     744A      2.306622   745A      2.308739   746A      2.310155  
     747A      2.317513   748A      2.319756   749A      2.326394  
     750A      2.327114   751A      2.329987   752A      2.333437  
     753A      2.342034   754A      2.346249   755A      2.350522  
     756A      2.354872   757A      2.355472   758A      2.357149  
     759A      2.358952   760A      2.363083   761A      2.368987  
     762A      2.370250   763A      2.372219   764A      2.375544  
     765A      2.380765   766A      2.384511   767A      2.386548  
     768A      2.388830   769A      2.389020   770A      2.393252  
     771A      2.395045   772A      2.401390   773A      2.404464  
     774A      2.405380   775A      2.407508   776A      2.411682  
     777A      2.413764   778A      2.417693   779A      2.417772  
     780A      2.424680   781A      2.431499   782A      2.432296  
     783A      2.434128   784A      2.437344   785A      2.441109  
     786A      2.442270   787A      2.450454   788A      2.452128  
     789A      2.453278   790A      2.455724   791A      2.458736  
     792A      2.462822   793A      2.463923   794A      2.468504  
     795A      2.472415   796A      2.475196   797A      2.479775  
     798A      2.485629   799A      2.489296   800A      2.490542  
     801A      2.494224   802A      2.496370   803A      2.500887  
     804A      2.503362   805A      2.507512   806A      2.512578  
     807A      2.514435   808A      2.517875   809A      2.518255  
     810A      2.519958   811A      2.522406   812A      2.525769  
     813A      2.528881   814A      2.535273   815A      2.537302  
     816A      2.541128   817A      2.548347   818A      2.548494  
     819A      2.551929   820A      2.555512   821A      2.556788  
     822A      2.563959   823A      2.565228   824A      2.571283  
     825A      2.575023   826A      2.577326   827A      2.585234  
     828A      2.585269   829A      2.589387   830A      2.591475  
     831A      2.592750   832A      2.595093   833A      2.600287  
     834A      2.602336   835A      2.602598   836A      2.606528  
     837A      2.606755   838A      2.612192   839A      2.615792  
     840A      2.617025   841A      2.620978   842A      2.623912  
     843A      2.625558   844A      2.626516   845A      2.628538  
     846A      2.634042   847A      2.638290   848A      2.640691  
     849A      2.642195   850A      2.645557   851A      2.647794  
     852A      2.650668   853A      2.652982   854A      2.655522  
     855A      2.663439   856A      2.667021   857A      2.668685  
     858A      2.674464   859A      2.679564   860A      2.680300  
     861A      2.686607   862A      2.688872   863A      2.693167  
     864A      2.698564   865A      2.700316   866A      2.701412  
     867A      2.704754   868A      2.711417   869A      2.711429  
     870A      2.721543   871A      2.724890   872A      2.728541  
     873A      2.731094   874A      2.733622   875A      2.738673  
     876A      2.742013   877A      2.745552   878A      2.745843  
     879A      2.746681   880A      2.752214   881A      2.759191  
     882A      2.763052   883A      2.764976   884A      2.767680  
     885A      2.771160   886A      2.771714   887A      2.779853  
     888A      2.782087   889A      2.783517   890A      2.783721  
     891A      2.787298   892A      2.789449   893A      2.792305  
     894A      2.795497   895A      2.802405   896A      2.804397  
     897A      2.806059   898A      2.809784   899A      2.810838  
     900A      2.818952   901A      2.822309   902A      2.826181  
     903A      2.830095   904A      2.836989   905A      2.842255  
     906A      2.844405   907A      2.849515   908A      2.853609  
     909A      2.855709   910A      2.865189   911A      2.865671  
     912A      2.868008   913A      2.868607   914A      2.871311  
     915A      2.878271   916A      2.882069   917A      2.888305  
     918A      2.889333   919A      2.894563   920A      2.898987  
     921A      2.901069   922A      2.908141   923A      2.910647  
     924A      2.911878   925A      2.914412   926A      2.920067  
     927A      2.928601   928A      2.934089   929A      2.940233  
     930A      2.943151   931A      2.944856   932A      2.948058  
     933A      2.951863   934A      2.952588   935A      2.956673  
     936A      2.964304   937A      2.967003   938A      2.968631  
     939A      2.973827   940A      2.974275   941A      2.978418  
     942A      2.981630   943A      2.983517   944A      2.989987  
     945A      2.995214   946A      3.001227   947A      3.004768  
     948A      3.008595   949A      3.010376   950A      3.017210  
     951A      3.022570   952A      3.023220   953A      3.026812  
     954A      3.030836   955A      3.034507   956A      3.035889  
     957A      3.041674   958A      3.043939   959A      3.046450  
     960A      3.053447   961A      3.054846   962A      3.056899  
     963A      3.058561   964A      3.061662   965A      3.063874  
     966A      3.069646   967A      3.076358   968A      3.080935  
     969A      3.083940   970A      3.085702   971A      3.089123  
     972A      3.089627   973A      3.101574   974A      3.104730  
     975A      3.108258   976A      3.110855   977A      3.119985  
     978A      3.122319   979A      3.126147   980A      3.127681  
     981A      3.131157   982A      3.132877   983A      3.135604  
     984A      3.136919   985A      3.146045   986A      3.148233  
     987A      3.154411   988A      3.157343   989A      3.162258  
     990A      3.164153   991A      3.170390   992A      3.179200  
     993A      3.179646   994A      3.184799   995A      3.185018  
     996A      3.190742   997A      3.195339   998A      3.199937  
     999A      3.204223  1000A      3.211568  1001A      3.215493  
    1002A      3.215768  1003A      3.224127  1004A      3.231751  
    1005A      3.233037  1006A      3.238512  1007A      3.243984  
    1008A      3.249313  1009A      3.254200  1010A      3.259472  
    1011A      3.262468  1012A      3.264047  1013A      3.273183  
    1014A      3.274081  1015A      3.275001  1016A      3.283905  
    1017A      3.287995  1018A      3.292365  1019A      3.297076  
    1020A      3.301013  1021A      3.312383  1022A      3.313316  
    1023A      3.315300  1024A      3.317322  1025A      3.324538  
    1026A      3.327253  1027A      3.330275  1028A      3.332911  
    1029A      3.338260  1030A      3.345743  1031A      3.348641  
    1032A      3.360453  1033A      3.362609  1034A      3.364958  
    1035A      3.366738  1036A      3.369507  1037A      3.376077  
    1038A      3.378952  1039A      3.381964  1040A      3.384586  
    1041A      3.394184  1042A      3.398012  1043A      3.398714  
    1044A      3.405086  1045A      3.406203  1046A      3.408985  
    1047A      3.412525  1048A      3.415973  1049A      3.424265  
    1050A      3.425512  1051A      3.430769  1052A      3.434145  
    1053A      3.437124  1054A      3.437348  1055A      3.442072  
    1056A      3.443842  1057A      3.450465  1058A      3.455485  
    1059A      3.466695  1060A      3.467630  1061A      3.475517  
    1062A      3.476485  1063A      3.479349  1064A      3.482671  
    1065A      3.490987  1066A      3.494658  1067A      3.500083  
    1068A      3.504385  1069A      3.505155  1070A      3.506810  
    1071A      3.512746  1072A      3.518152  1073A      3.519609  
    1074A      3.524029  1075A      3.530840  1076A      3.530994  
    1077A      3.534652  1078A      3.543729  1079A      3.544639  
    1080A      3.547117  1081A      3.555802  1082A      3.565109  
    1083A      3.568071  1084A      3.570044  1085A      3.580633  
    1086A      3.586298  1087A      3.589787  1088A      3.594552  
    1089A      3.596287  1090A      3.601099  1091A      3.604005  
    1092A      3.606692  1093A      3.609973  1094A      3.612889  
    1095A      3.615162  1096A      3.617206  1097A      3.621835  
    1098A      3.627935  1099A      3.629905  1100A      3.634009  
    1101A      3.634913  1102A      3.642898  1103A      3.643007  
    1104A      3.645489  1105A      3.654257  1106A      3.661687  
    1107A      3.663463  1108A      3.665269  1109A      3.666824  
    1110A      3.670770  1111A      3.673425  1112A      3.677052  
    1113A      3.687772  1114A      3.692176  1115A      3.698966  
    1116A      3.701393  1117A      3.702405  1118A      3.711298  
    1119A      3.711595  1120A      3.717965  1121A      3.730682  
    1122A      3.736502  1123A      3.738971  1124A      3.741739  
    1125A      3.749647  1126A      3.751924  1127A      3.754949  
    1128A      3.759915  1129A      3.763287  1130A      3.765020  
    1131A      3.767891  1132A      3.774833  1133A      3.775938  
    1134A      3.780712  1135A      3.783343  1136A      3.789853  
    1137A      3.796023  1138A      3.799643  1139A      3.802683  
    1140A      3.810966  1141A      3.814992  1142A      3.816444  
    1143A      3.822422  1144A      3.829475  1145A      3.830438  
    1146A      3.834253  1147A      3.834459  1148A      3.838931  
    1149A      3.847717  1150A      3.850810  1151A      3.854957  
    1152A      3.856785  1153A      3.859211  1154A      3.861705  
    1155A      3.864941  1156A      3.866179  1157A      3.867294  
    1158A      3.872356  1159A      3.875500  1160A      3.881542  
    1161A      3.885171  1162A      3.886487  1163A      3.902259  
    1164A      3.910516  1165A      3.919226  1166A      3.921131  
    1167A      3.923586  1168A      3.929677  1169A      3.932756  
    1170A      3.935678  1171A      3.936937  1172A      3.940312  
    1173A      3.949175  1174A      3.953933  1175A      3.955954  
    1176A      3.958310  1177A      3.958781  1178A      3.978281  
    1179A      3.982531  1180A      3.987101  1181A      3.994741  
    1182A      3.997419  1183A      3.999588  1184A      4.003950  
    1185A      4.005882  1186A      4.017065  1187A      4.025077  
    1188A      4.029957  1189A      4.033529  1190A      4.038676  
    1191A      4.046168  1192A      4.062052  1193A      4.064838  
    1194A      4.066552  1195A      4.070869  1196A      4.073773  
    1197A      4.074454  1198A      4.077231  1199A      4.086062  
    1200A      4.088289  1201A      4.089862  1202A      4.101546  
    1203A      4.102283  1204A      4.116105  1205A      4.122769  
    1206A      4.131585  1207A      4.134769  1208A      4.138287  
    1209A      4.142294  1210A      4.142828  1211A      4.145562  
    1212A      4.148972  1213A      4.154564  1214A      4.156054  
    1215A      4.167345  1216A      4.172476  1217A      4.174561  
    1218A      4.184819  1219A      4.187105  1220A      4.193529  
    1221A      4.196782  1222A      4.203576  1223A      4.208940  
    1224A      4.214696  1225A      4.217670  1226A      4.225145  
    1227A      4.233391  1228A      4.236912  1229A      4.239467  
    1230A      4.247184  1231A      4.258057  1232A      4.258467  
    1233A      4.262529  1234A      4.263012  1235A      4.264550  
    1236A      4.266445  1237A      4.282495  1238A      4.293257  
    1239A      4.294264  1240A      4.302538  1241A      4.306623  
    1242A      4.310805  1243A      4.313803  1244A      4.314432  
    1245A      4.318804  1246A      4.324893  1247A      4.330102  
    1248A      4.332934  1249A      4.342138  1250A      4.344254  
    1251A      4.347161  1252A      4.357041  1253A      4.367644  
    1254A      4.371895  1255A      4.375325  1256A      4.386970  
    1257A      4.387387  1258A      4.397810  1259A      4.406298  
    1260A      4.411246  1261A      4.418540  1262A      4.419190  
    1263A      4.423331  1264A      4.424646  1265A      4.430783  
    1266A      4.433684  1267A      4.441809  1268A      4.444981  
    1269A      4.450124  1270A      4.459664  1271A      4.461567  
    1272A      4.472853  1273A      4.473718  1274A      4.477791  
    1275A      4.485961  1276A      4.495661  1277A      4.498136  
    1278A      4.504199  1279A      4.505642  1280A      4.509913  
    1281A      4.517539  1282A      4.519875  1283A      4.529559  
    1284A      4.530420  1285A      4.535531  1286A      4.545717  
    1287A      4.549199  1288A      4.556613  1289A      4.561263  
    1290A      4.562861  1291A      4.569361  1292A      4.582890  
    1293A      4.589845  1294A      4.591330  1295A      4.597201  
    1296A      4.602102  1297A      4.606911  1298A      4.611638  
    1299A      4.615121  1300A      4.617240  1301A      4.628450  
    1302A      4.634934  1303A      4.636741  1304A      4.639726  
    1305A      4.646323  1306A      4.652653  1307A      4.660188  
    1308A      4.665683  1309A      4.672320  1310A      4.673828  
    1311A      4.685500  1312A      4.690523  1313A      4.697986  
    1314A      4.701813  1315A      4.702418  1316A      4.707728  
    1317A      4.715133  1318A      4.717387  1319A      4.722105  
    1320A      4.729606  1321A      4.735615  1322A      4.738120  
    1323A      4.752540  1324A      4.757371  1325A      4.770967  
    1326A      4.774976  1327A      4.781402  1328A      4.784909  
    1329A      4.794515  1330A      4.805281  1331A      4.811867  
    1332A      4.816697  1333A      4.816974  1334A      4.821271  
    1335A      4.823602  1336A      4.831147  1337A      4.838445  
    1338A      4.849739  1339A      4.851351  1340A      4.865219  
    1341A      4.867370  1342A      4.873399  1343A      4.882673  
    1344A      4.884803  1345A      4.888980  1346A      4.894719  
    1347A      4.906587  1348A      4.916106  1349A      4.921174  
    1350A      4.923698  1351A      4.924636  1352A      4.959724  
    1353A      4.964549  1354A      4.980868  1355A      4.988999  
    1356A      4.991701  1357A      4.998785  1358A      4.999928  
    1359A      5.016195  1360A      5.027230  1361A      5.033360  
    1362A      5.034364  1363A      5.055945  1364A      5.071433  
    1365A      5.079698  1366A      5.086703  1367A      5.092164  
    1368A      5.093887  1369A      5.119101  1370A      5.126955  
    1371A      5.131061  1372A      5.148117  1373A      5.164426  
    1374A      5.178904  1375A      5.183775  1376A      5.190889  
    1377A      5.213521  1378A      5.241966  1379A      5.258906  
    1380A      5.262434  1381A      5.285084  1382A      5.287055  
    1383A      5.292271  1384A      5.307305  1385A      5.313154  
    1386A      5.324332  1387A      5.339713  1388A      5.344385  
    1389A      5.362626  1390A      5.370109  1391A      5.381038  
    1392A      5.383502  1393A      5.390741  1394A      5.400568  
    1395A      5.404564  1396A      5.409260  1397A      5.439791  
    1398A      5.458327  1399A      5.460023  1400A      5.463607  
    1401A      5.482511  1402A      5.505029  1403A      5.507054  
    1404A      5.509973  1405A      5.538936  1406A      5.558536  
    1407A      5.560964  1408A      5.567087  1409A      5.579778  
    1410A      5.587875  1411A      5.595321  1412A      5.598362  
    1413A      5.598451  1414A      5.607294  1415A      5.617181  
    1416A      5.621940  1417A      5.639243  1418A      5.663930  
    1419A      5.684230  1420A      5.688850  1421A      5.698624  
    1422A      5.702230  1423A      5.707022  1424A      5.716516  
    1425A      5.728116  1426A      5.733713  1427A      5.747653  
    1428A      5.753672  1429A      5.755686  1430A      5.763271  
    1431A      5.773516  1432A      5.775967  1433A      5.779995  
    1434A      5.781534  1435A      5.783597  1436A      5.785871  
    1437A      5.796247  1438A      5.804255  1439A      5.814433  
    1440A      5.816930  1441A      5.834212  1442A      5.836165  
    1443A      5.844014  1444A      5.854512  1445A      5.855962  
    1446A      5.865638  1447A      5.873266  1448A      5.874395  
    1449A      5.881184  1450A      5.889988  1451A      5.892545  
    1452A      5.898985  1453A      5.902576  1454A      5.905520  
    1455A      5.911576  1456A      5.917527  1457A      5.918762  
    1458A      5.923446  1459A      5.935079  1460A      5.935776  
    1461A      5.950384  1462A      5.953458  1463A      5.954087  
    1464A      5.960955  1465A      5.964385  1466A      5.966301  
    1467A      5.974212  1468A      5.980208  1469A      5.982072  
    1470A      5.986909  1471A      5.990404  1472A      5.995755  
    1473A      5.999554  1474A      6.000439  1475A      6.001757  
    1476A      6.006370  1477A      6.013015  1478A      6.013743  
    1479A      6.018602  1480A      6.022402  1481A      6.024550  
    1482A      6.030147  1483A      6.044240  1484A      6.049845  
    1485A      6.050473  1486A      6.051827  1487A      6.058875  
    1488A      6.064051  1489A      6.070358  1490A      6.074258  
    1491A      6.082469  1492A      6.085015  1493A      6.085663  
    1494A      6.089693  1495A      6.094332  1496A      6.098725  
    1497A      6.110027  1498A      6.111759  1499A      6.119299  
    1500A      6.123079  1501A      6.130009  1502A      6.134959  
    1503A      6.136952  1504A      6.140075  1505A      6.144365  
    1506A      6.150177  1507A      6.152587  1508A      6.157134  
    1509A      6.159267  1510A      6.161529  1511A      6.165356  
    1512A      6.168524  1513A      6.171990  1514A      6.172913  
    1515A      6.175643  1516A      6.184925  1517A      6.187150  
    1518A      6.188833  1519A      6.193781  1520A      6.199300  
    1521A      6.199790  1522A      6.202688  1523A      6.207262  
    1524A      6.214180  1525A      6.215884  1526A      6.218965  
    1527A      6.222822  1528A      6.225541  1529A      6.226465  
    1530A      6.230805  1531A      6.235959  1532A      6.239349  
    1533A      6.247526  1534A      6.252007  1535A      6.254182  
    1536A      6.260184  1537A      6.260835  1538A      6.261731  
    1539A      6.267800  1540A      6.280666  1541A      6.289829  
    1542A      6.295320  1543A      6.299254  1544A      6.299646  
    1545A      6.304333  1546A      6.308805  1547A      6.321428  
    1548A      6.324376  1549A      6.327763  1550A      6.330250  
    1551A      6.332184  1552A      6.335369  1553A      6.340100  
    1554A      6.341353  1555A      6.344658  1556A      6.346411  
    1557A      6.348266  1558A      6.356392  1559A      6.363068  
    1560A      6.363724  1561A      6.368444  1562A      6.370199  
    1563A      6.373946  1564A      6.375218  1565A      6.377948  
    1566A      6.388165  1567A      6.391010  1568A      6.393506  
    1569A      6.395559  1570A      6.399125  1571A      6.404012  
    1572A      6.410298  1573A      6.411698  1574A      6.412737  
    1575A      6.417568  1576A      6.421153  1577A      6.430761  
    1578A      6.433549  1579A      6.438960  1580A      6.443195  
    1581A      6.445235  1582A      6.447663  1583A      6.458679  
    1584A      6.459634  1585A      6.461531  1586A      6.463579  
    1587A      6.464616  1588A      6.468574  1589A      6.471840  
    1590A      6.475566  1591A      6.479524  1592A      6.485914  
    1593A      6.492865  1594A      6.492899  1595A      6.497211  
    1596A      6.498328  1597A      6.502502  1598A      6.505208  
    1599A      6.506168  1600A      6.511343  1601A      6.512274  
    1602A      6.517069  1603A      6.524381  1604A      6.525680  
    1605A      6.534208  1606A      6.535747  1607A      6.542333  
    1608A      6.553839  1609A      6.557178  1610A      6.560591  
    1611A      6.568899  1612A      6.570307  1613A      6.571970  
    1614A      6.585716  1615A      6.587035  1616A      6.593054  
    1617A      6.598455  1618A      6.602407  1619A      6.603904  
    1620A      6.607062  1621A      6.612837  1622A      6.616078  
    1623A      6.623651  1624A      6.626975  1625A      6.628368  
    1626A      6.630393  1627A      6.633812  1628A      6.634207  
    1629A      6.637162  1630A      6.638924  1631A      6.641652  
    1632A      6.648134  1633A      6.655848  1634A      6.664145  
    1635A      6.666547  1636A      6.667527  1637A      6.672290  
    1638A      6.677126  1639A      6.678550  1640A      6.684166  
    1641A      6.685148  1642A      6.693250  1643A      6.696849  
    1644A      6.701481  1645A      6.705253  1646A      6.710216  
    1647A      6.714271  1648A      6.721400  1649A      6.721408  
    1650A      6.724231  1651A      6.732430  1652A      6.733423  
    1653A      6.735629  1654A      6.746798  1655A      6.755190  
    1656A      6.757822  1657A      6.758563  1658A      6.769586  
    1659A      6.770798  1660A      6.781906  1661A      6.788220  
    1662A      6.789997  1663A      6.796531  1664A      6.798475  
    1665A      6.799782  1666A      6.802603  1667A      6.810678  
    1668A      6.821599  1669A      6.827767  1670A      6.834562  
    1671A      6.835615  1672A      6.839030  1673A      6.846963  
    1674A      6.847010  1675A      6.851428  1676A      6.857162  
    1677A      6.870083  1678A      6.875941  1679A      6.883807  
    1680A      6.884279  1681A      6.889776  1682A      6.900024  
    1683A      6.906405  1684A      6.907847  1685A      6.911203  
    1686A      6.919911  1687A      6.921021  1688A      6.930518  
    1689A      6.932048  1690A      6.937477  1691A      6.939248  
    1692A      6.941255  1693A      6.953562  1694A      6.963798  
    1695A      6.968836  1696A      6.975608  1697A      6.977990  
    1698A      6.984464  1699A      6.987338  1700A      6.997516  
    1701A      7.009589  1702A      7.009711  1703A      7.016597  
    1704A      7.019721  1705A      7.021471  1706A      7.032291  
    1707A      7.032386  1708A      7.048483  1709A      7.053406  
    1710A      7.054097  1711A      7.059714  1712A      7.066724  
    1713A      7.067750  1714A      7.071232  1715A      7.082000  
    1716A      7.088715  1717A      7.089015  1718A      7.091101  
    1719A      7.091204  1720A      7.095152  1721A      7.098327  
    1722A      7.104464  1723A      7.119559  1724A      7.121275  
    1725A      7.121719  1726A      7.128694  1727A      7.136070  
    1728A      7.144433  1729A      7.148016  1730A      7.153443  
    1731A      7.158878  1732A      7.168431  1733A      7.168904  
    1734A      7.172086  1735A      7.177516  1736A      7.179584  
    1737A      7.186259  1738A      7.193763  1739A      7.198114  
    1740A      7.198794  1741A      7.207392  1742A      7.207797  
    1743A      7.212745  1744A      7.225832  1745A      7.231481  
    1746A      7.245952  1747A      7.246835  1748A      7.247155  
    1749A      7.255189  1750A      7.259002  1751A      7.262771  
    1752A      7.267391  1753A      7.270736  1754A      7.271935  
    1755A      7.282836  1756A      7.285781  1757A      7.286754  
    1758A      7.297712  1759A      7.306226  1760A      7.316971  
    1761A      7.318348  1762A      7.330505  1763A      7.340665  
    1764A      7.346914  1765A      7.353365  1766A      7.363647  
    1767A      7.368156  1768A      7.373569  1769A      7.375996  
    1770A      7.377435  1771A      7.384242  1772A      7.390449  
    1773A      7.396951  1774A      7.408792  1775A      7.412895  
    1776A      7.415310  1777A      7.427026  1778A      7.429787  
    1779A      7.434139  1780A      7.445873  1781A      7.446286  
    1782A      7.447336  1783A      7.453215  1784A      7.457478  
    1785A      7.460560  1786A      7.461320  1787A      7.464751  
    1788A      7.470550  1789A      7.474756  1790A      7.481142  
    1791A      7.488051  1792A      7.497724  1793A      7.506441  
    1794A      7.506850  1795A      7.508248  1796A      7.519022  
    1797A      7.521097  1798A      7.528877  1799A      7.533441  
    1800A      7.534464  1801A      7.539209  1802A      7.548054  
    1803A      7.554551  1804A      7.558817  1805A      7.563878  
    1806A      7.569277  1807A      7.569730  1808A      7.578134  
    1809A      7.582536  1810A      7.586445  1811A      7.594404  
    1812A      7.599709  1813A      7.601238  1814A      7.607365  
    1815A      7.609417  1816A      7.611629  1817A      7.615948  
    1818A      7.621426  1819A      7.625385  1820A      7.627433  
    1821A      7.628031  1822A      7.629489  1823A      7.646497  
    1824A      7.653155  1825A      7.660209  1826A      7.664833  
    1827A      7.667478  1828A      7.674776  1829A      7.679218  
    1830A      7.680501  1831A      7.685014  1832A      7.690890  
    1833A      7.691505  1834A      7.693306  1835A      7.700500  
    1836A      7.702770  1837A      7.709031  1838A      7.712910  
    1839A      7.722013  1840A      7.724435  1841A      7.727973  
    1842A      7.735900  1843A      7.737452  1844A      7.750617  
    1845A      7.752937  1846A      7.753703  1847A      7.759206  
    1848A      7.761360  1849A      7.766811  1850A      7.771625  
    1851A      7.776212  1852A      7.778561  1853A      7.785580  
    1854A      7.798654  1855A      7.802492  1856A      7.807104  
    1857A      7.808506  1858A      7.813028  1859A      7.817109  
    1860A      7.824104  1861A      7.835717  1862A      7.837790  
    1863A      7.842047  1864A      7.842265  1865A      7.845720  
    1866A      7.853288  1867A      7.856335  1868A      7.857218  
    1869A      7.863859  1870A      7.865986  1871A      7.867757  
    1872A      7.870460  1873A      7.874009  1874A      7.880162  
    1875A      7.881711  1876A      7.886852  1877A      7.890453  
    1878A      7.891929  1879A      7.900026  1880A      7.902038  
    1881A      7.911733  1882A      7.912970  1883A      7.916148  
    1884A      7.917846  1885A      7.921391  1886A      7.921974  
    1887A      7.927223  1888A      7.933026  1889A      7.938435  
    1890A      7.943553  1891A      7.951926  1892A      7.958127  
    1893A      7.969967  1894A      7.971441  1895A      7.975122  
    1896A      7.978220  1897A      7.987413  1898A      7.994541  
    1899A      7.997318  1900A      7.999603  1901A      8.006997  
    1902A      8.009230  1903A      8.009690  1904A      8.016088  
    1905A      8.023140  1906A      8.028037  1907A      8.032051  
    1908A      8.040717  1909A      8.045822  1910A      8.047091  
    1911A      8.048172  1912A      8.050245  1913A      8.055796  
    1914A      8.058457  1915A      8.065808  1916A      8.069910  
    1917A      8.077267  1918A      8.078019  1919A      8.084391  
    1920A      8.094065  1921A      8.097068  1922A      8.100151  
    1923A      8.104799  1924A      8.109046  1925A      8.114646  
    1926A      8.117440  1927A      8.120966  1928A      8.128501  
    1929A      8.133972  1930A      8.135309  1931A      8.151934  
    1932A      8.153830  1933A      8.157103  1934A      8.169401  
    1935A      8.172776  1936A      8.176067  1937A      8.182154  
    1938A      8.184348  1939A      8.194303  1940A      8.197560  
    1941A      8.198675  1942A      8.203960  1943A      8.208402  
    1944A      8.209835  1945A      8.217800  1946A      8.220248  
    1947A      8.221489  1948A      8.222870  1949A      8.226180  
    1950A      8.232207  1951A      8.234339  1952A      8.240317  
    1953A      8.242090  1954A      8.244502  1955A      8.250353  
    1956A      8.252888  1957A      8.254133  1958A      8.260172  
    1959A      8.264100  1960A      8.264492  1961A      8.268281  
    1962A      8.275967  1963A      8.279855  1964A      8.282871  
    1965A      8.284196  1966A      8.285161  1967A      8.289319  
    1968A      8.295364  1969A      8.296046  1970A      8.303673  
    1971A      8.310387  1972A      8.315750  1973A      8.320751  
    1974A      8.329651  1975A      8.329928  1976A      8.332002  
    1977A      8.336956  1978A      8.343226  1979A      8.347271  
    1980A      8.349657  1981A      8.350801  1982A      8.358519  
    1983A      8.360512  1984A      8.365980  1985A      8.368292  
    1986A      8.372185  1987A      8.381625  1988A      8.383537  
    1989A      8.384033  1990A      8.390078  1991A      8.394152  
    1992A      8.399583  1993A      8.401748  1994A      8.406883  
    1995A      8.414626  1996A      8.415729  1997A      8.417307  
    1998A      8.424029  1999A      8.424372  2000A      8.430402  
    2001A      8.432864  2002A      8.437403  2003A      8.445913  
    2004A      8.447095  2005A      8.456829  2006A      8.459563  
    2007A      8.462849  2008A      8.467970  2009A      8.473164  
    2010A      8.475581  2011A      8.476162  2012A      8.479005  
    2013A      8.479687  2014A      8.487962  2015A      8.490355  
    2016A      8.493719  2017A      8.498454  2018A      8.505148  
    2019A      8.509514  2020A      8.518181  2021A      8.524269  
    2022A      8.530307  2023A      8.532695  2024A      8.534639  
    2025A      8.539421  2026A      8.539455  2027A      8.545825  
    2028A      8.550329  2029A      8.551996  2030A      8.559801  
    2031A      8.560755  2032A      8.567166  2033A      8.574461  
    2034A      8.585410  2035A      8.590960  2036A      8.594595  
    2037A      8.601078  2038A      8.602653  2039A      8.608810  
    2040A      8.611629  2041A      8.614598  2042A      8.619257  
    2043A      8.626442  2044A      8.630905  2045A      8.639573  
    2046A      8.644442  2047A      8.644921  2048A      8.645959  
    2049A      8.655850  2050A      8.663190  2051A      8.666728  
    2052A      8.667212  2053A      8.674279  2054A      8.678292  
    2055A      8.680670  2056A      8.692670  2057A      8.701059  
    2058A      8.704594  2059A      8.706288  2060A      8.708999  
    2061A      8.712994  2062A      8.715775  2063A      8.717914  
    2064A      8.721114  2065A      8.734087  2066A      8.742379  
    2067A      8.743829  2068A      8.756509  2069A      8.758797  
    2070A      8.761561  2071A      8.764257  2072A      8.766783  
    2073A      8.776436  2074A      8.783754  2075A      8.797731  
    2076A      8.799875  2077A      8.803005  2078A      8.804624  
    2079A      8.806470  2080A      8.814454  2081A      8.819668  
    2082A      8.827746  2083A      8.829264  2084A      8.834130  
    2085A      8.838671  2086A      8.839709  2087A      8.848950  
    2088A      8.858246  2089A      8.860856  2090A      8.872634  
    2091A      8.876688  2092A      8.877386  2093A      8.879123  
    2094A      8.883870  2095A      8.886520  2096A      8.897125  
    2097A      8.897970  2098A      8.899476  2099A      8.902092  
    2100A      8.909176  2101A      8.909294  2102A      8.910892  
    2103A      8.914232  2104A      8.919126  2105A      8.923967  
    2106A      8.926109  2107A      8.935677  2108A      8.945513  
    2109A      8.951123  2110A      8.952770  2111A      8.963887  
    2112A      8.977648  2113A      8.978607  2114A      8.988910  
    2115A      9.001539  2116A      9.008543  2117A      9.010446  
    2118A      9.015309  2119A      9.026536  2120A      9.038083  
    2121A      9.039716  2122A      9.041120  2123A      9.051590  
    2124A      9.054555  2125A      9.058590  2126A      9.065200  
    2127A      9.072139  2128A      9.074332  2129A      9.081218  
    2130A      9.089051  2131A      9.093980  2132A      9.094680  
    2133A      9.098614  2134A      9.110781  2135A      9.111990  
    2136A      9.116562  2137A      9.127453  2138A      9.130893  
    2139A      9.136489  2140A      9.141557  2141A      9.158999  
    2142A      9.162244  2143A      9.167145  2144A      9.172704  
    2145A      9.174223  2146A      9.177543  2147A      9.181196  
    2148A      9.182054  2149A      9.187076  2150A      9.189733  
    2151A      9.190394  2152A      9.201486  2153A      9.205354  
    2154A      9.208109  2155A      9.214908  2156A      9.217879  
    2157A      9.218466  2158A      9.221524  2159A      9.227893  
    2160A      9.241609  2161A      9.244971  2162A      9.246855  
    2163A      9.257763  2164A      9.261784  2165A      9.263486  
    2166A      9.269382  2167A      9.275296  2168A      9.282323  
    2169A      9.284623  2170A      9.291013  2171A      9.300093  
    2172A      9.302628  2173A      9.304242  2174A      9.314521  
    2175A      9.321455  2176A      9.328614  2177A      9.334490  
    2178A      9.335662  2179A      9.341904  2180A      9.348829  
    2181A      9.353384  2182A      9.355253  2183A      9.357605  
    2184A      9.361402  2185A      9.365093  2186A      9.368162  
    2187A      9.372324  2188A      9.376666  2189A      9.377944  
    2190A      9.379065  2191A      9.380232  2192A      9.383880  
    2193A      9.385727  2194A      9.390038  2195A      9.391290  
    2196A      9.391423  2197A      9.392729  2198A      9.398324  
    2199A      9.400033  2200A      9.404364  2201A      9.407042  
    2202A      9.408842  2203A      9.412580  2204A      9.415039  
    2205A      9.418794  2206A      9.421673  2207A      9.424090  
    2208A      9.424206  2209A      9.427909  2210A      9.432465  
    2211A      9.433723  2212A      9.438399  2213A      9.448203  
    2214A      9.449391  2215A      9.450548  2216A      9.463042  
    2217A      9.470056  2218A      9.470743  2219A      9.473831  
    2220A      9.481546  2221A      9.491187  2222A      9.492963  
    2223A      9.499117  2224A      9.503047  2225A      9.513072  
    2226A      9.523823  2227A      9.526367  2228A      9.528334  
    2229A      9.528514  2230A      9.533476  2231A      9.542863  
    2232A      9.562487  2233A      9.578468  2234A      9.581288  
    2235A      9.592417  2236A      9.594049  2237A      9.595130  
    2238A      9.605880  2239A      9.612282  2240A      9.612483  
    2241A      9.619269  2242A      9.619887  2243A      9.627728  
    2244A      9.634986  2245A      9.635653  2246A      9.639182  
    2247A      9.642966  2248A      9.657163  2249A      9.659065  
    2250A      9.669516  2251A      9.671526  2252A      9.673447  
    2253A      9.677343  2254A      9.683932  2255A      9.693404  
    2256A      9.693962  2257A      9.703362  2258A      9.718588  
    2259A      9.734582  2260A      9.748727  2261A      9.769041  
    2262A      9.776707  2263A      9.784896  2264A      9.790942  
    2265A      9.791803  2266A      9.804506  2267A      9.812571  
    2268A      9.813172  2269A      9.820397  2270A      9.836751  
    2271A      9.843088  2272A      9.849931  2273A      9.860374  
    2274A      9.861910  2275A      9.866642  2276A      9.876856  
    2277A      9.914872  2278A      9.923249  2279A      9.925053  
    2280A      9.932235  2281A      9.973209  2282A      9.985686  
    2283A     10.019686  2284A     10.026252  2285A     10.030210  
    2286A     10.054507  2287A     10.060259  2288A     10.066475  
    2289A     10.076437  2290A     10.091107  2291A     10.091597  
    2292A     10.105727  2293A     10.106723  2294A     10.116644  
    2295A     10.124801  2296A     10.131895  2297A     10.148629  
    2298A     10.158045  2299A     10.188255  2300A     10.189452  
    2301A     10.195255  2302A     10.200267  2303A     10.204476  
    2304A     10.210222  2305A     10.213098  2306A     10.232957  
    2307A     10.233650  2308A     10.235631  2309A     10.241706  
    2310A     10.245220  2311A     10.249672  2312A     10.251538  
    2313A     10.258946  2314A     10.277610  2315A     10.282189  
    2316A     10.287194  2317A     10.293789  2318A     10.299951  
    2319A     10.306313  2320A     10.311958  2321A     10.317915  
    2322A     10.323775  2323A     10.336549  2324A     10.350311  
    2325A     10.357440  2326A     10.377174  2327A     10.384055  
    2328A     10.386591  2329A     10.390869  2330A     10.395944  
    2331A     10.405507  2332A     10.411251  2333A     10.418793  
    2334A     10.423713  2335A     10.429815  2336A     10.430837  
    2337A     10.437052  2338A     10.446816  2339A     10.450719  
    2340A     10.458565  2341A     10.469885  2342A     10.474930  
    2343A     10.477966  2344A     10.492311  2345A     10.492823  
    2346A     10.499809  2347A     10.516554  2348A     10.520364  
    2349A     10.529869  2350A     10.535820  2351A     10.539905  
    2352A     10.543975  2353A     10.546861  2354A     10.547744  
    2355A     10.564188  2356A     10.570386  2357A     10.581499  
    2358A     10.594167  2359A     10.598665  2360A     10.606494  
    2361A     10.610378  2362A     10.626905  2363A     10.629433  
    2364A     10.632562  2365A     10.635125  2366A     10.638569  
    2367A     10.647976  2368A     10.652874  2369A     10.655647  
    2370A     10.660588  2371A     10.662609  2372A     10.670479  
    2373A     10.685884  2374A     10.686517  2375A     10.690419  
    2376A     10.705433  2377A     10.706785  2378A     10.717927  
    2379A     10.736279  2380A     10.744797  2381A     10.746469  
    2382A     10.765991  2383A     10.773955  2384A     10.792705  
    2385A     10.793596  2386A     10.803897  2387A     10.807267  
    2388A     10.812221  2389A     10.838015  2390A     10.848581  
    2391A     10.858350  2392A     10.859136  2393A     10.860791  
    2394A     10.879735  2395A     10.880543  2396A     10.893251  
    2397A     10.894684  2398A     10.902511  2399A     10.904423  
    2400A     10.928265  2401A     10.933343  2402A     10.949474  
    2403A     10.955016  2404A     10.955525  2405A     10.958864  
    2406A     10.969324  2407A     10.985794  2408A     11.016404  
    2409A     11.018409  2410A     11.029891  2411A     11.032492  
    2412A     11.034452  2413A     11.055418  2414A     11.057666  
    2415A     11.086301  2416A     11.095993  2417A     11.106435  
    2418A     11.110406  2419A     11.117164  2420A     11.138004  
    2421A     11.150762  2422A     11.161572  2423A     11.170562  
    2424A     11.189715  2425A     11.204842  2426A     11.212691  
    2427A     11.222690  2428A     11.236953  2429A     11.238444  
    2430A     11.269034  2431A     11.283639  2432A     11.291218  
    2433A     11.303032  2434A     11.311141  2435A     11.326263  
    2436A     11.345797  2437A     11.381571  2438A     11.385755  
    2439A     11.391066  2440A     11.441495  2441A     11.444561  
    2442A     11.459692  2443A     11.481793  2444A     11.508272  
    2445A     11.532913  2446A     11.535764  2447A     11.570717  
    2448A     11.583379  2449A     11.592748  2450A     11.593044  
    2451A     11.597731  2452A     11.604616  2453A     11.623789  
    2454A     11.627118  2455A     11.627268  2456A     11.628670  
    2457A     11.639148  2458A     11.640613  2459A     11.649985  
    2460A     11.653937  2461A     11.654125  2462A     11.654431  
    2463A     11.659928  2464A     11.660556  2465A     11.666690  
    2466A     11.677120  2467A     11.689493  2468A     11.692521  
    2469A     11.697299  2470A     11.699829  2471A     11.702744  
    2472A     11.704962  2473A     11.716857  2474A     11.730428  
    2475A     11.734004  2476A     11.765726  2477A     11.787772  
    2478A     11.826958  2479A     11.871297  2480A     11.885832  
    2481A     11.886681  2482A     11.889144  2483A     11.950521  
    2484A     11.952909  2485A     11.975038  2486A     11.997797  
    2487A     11.999032  2488A     12.005237  2489A     12.006251  
    2490A     12.007873  2491A     12.012207  2492A     12.015032  
    2493A     12.028455  2494A     12.031395  2495A     12.038777  
    2496A     12.043681  2497A     12.044938  2498A     12.054710  
    2499A     12.057513  2500A     12.061191  2501A     12.066068  
    2502A     12.069443  2503A     12.075869  2504A     12.079165  
    2505A     12.107729  2506A     12.108097  2507A     12.115040  
    2508A     12.115513  2509A     12.136990  2510A     12.138161  
    2511A     12.144291  2512A     12.144705  2513A     12.174929  
    2514A     12.181867  2515A     12.184556  2516A     12.194619  
    2517A     12.211555  2518A     12.218530  2519A     12.222437  
    2520A     12.224495  2521A     12.259985  2522A     12.282518  
    2523A     12.284390  2524A     12.299876  2525A     12.320340  
    2526A     12.324863  2527A     12.339048  2528A     12.355438  
    2529A     12.363216  2530A     12.373547  2531A     12.379750  
    2532A     12.382353  2533A     12.389875  2534A     12.403583  
    2535A     12.408190  2536A     12.412616  2537A     12.414494  
    2538A     12.415970  2539A     12.435866  2540A     12.442516  
    2541A     12.447849  2542A     12.448743  2543A     12.454928  
    2544A     12.490183  2545A     12.508714  2546A     12.522750  
    2547A     12.540530  2548A     12.541626  2549A     12.552582  
    2550A     12.562977  2551A     12.563868  2552A     12.575141  
    2553A     12.604422  2554A     12.605958  2555A     12.649670  
    2556A     12.663736  2557A     12.677903  2558A     12.697856  
    2559A     12.705666  2560A     12.714593  2561A     12.720151  
    2562A     12.728034  2563A     12.737168  2564A     12.748074  
    2565A     12.749559  2566A     12.751822  2567A     12.762964  
    2568A     12.766162  2569A     12.769739  2570A     12.772076  
    2571A     12.774347  2572A     12.799639  2573A     12.807013  
    2574A     12.809847  2575A     12.812695  2576A     12.832136  
    2577A     12.838307  2578A     12.843749  2579A     12.853147  
    2580A     12.855935  2581A     12.862204  2582A     12.864405  
    2583A     12.866663  2584A     12.895103  2585A     12.899421  
    2586A     12.905925  2587A     12.909007  2588A     12.922261  
    2589A     12.929602  2590A     12.936040  2591A     12.937294  
    2592A     12.951112  2593A     12.999915  2594A     13.004853  
    2595A     13.030448  2596A     13.223968  2597A     13.229663  
    2598A     13.279639  2599A     13.302296  2600A     13.306428  
    2601A     13.398241  2602A     13.415531  2603A     13.431262  
    2604A     13.433077  2605A     13.444942  2606A     13.480067  
    2607A     13.499682  2608A     13.504379  2609A     13.673590  
    2610A     13.706996  2611A     13.765424  2612A     13.777770  
    2613A     13.794827  2614A     13.806684  2615A     13.823743  
    2616A     13.863092  2617A     13.867789  2618A     13.909506  
    2619A     13.921022  2620A     13.962268  2621A     14.052970  
    2622A     14.056219  2623A     14.130593  2624A     14.163371  
    2625A     14.174952  2626A     14.192594  2627A     14.205043  
    2628A     14.212098  2629A     14.219069  2630A     14.248760  
    2631A     14.263410  2632A     14.296785  2633A     14.388602  
    2634A     14.392351  2635A     14.411920  2636A     14.422304  
    2637A     14.423613  2638A     14.433610  2639A     14.456396  
    2640A     14.467662  2641A     14.541111  2642A     14.547023  
    2643A     14.548406  2644A     14.562185  2645A     14.603266  
    2646A     14.640164  2647A     14.684475  2648A     14.693166  
    2649A     14.707105  2650A     14.806910  2651A     14.934784  
    2652A     14.941828  2653A     15.029913  2654A     15.063815  
    2655A     15.073883  2656A     16.736099  2657A     16.819436  
    2658A     16.964852  2659A     24.989243  2660A     24.990820  
    2661A     25.216004  2662A     25.245969  2663A     25.282931  
    2664A     25.334449  2665A     25.360422  2666A     25.404540  
    2667A     26.132564  2668A     26.133125  2669A     26.214481  
    2670A     26.486084  2671A     26.542247  2672A     26.665639  
    2673A     26.730280  2674A     26.779100  2675A     34.315939  
    2676A     34.549830  2677A     34.683754  2678A     34.933472  
    2679A     34.962413  2680A     42.838680  2681A     42.866361  
    2682A     43.059277  2683A     43.076951  2684A     43.122160  
    2685A     43.162487  2686A     43.276252  2687A     43.316930  
    2688A     44.462174  2689A     44.570021  2690A     44.837546  

    Final Occupation by Irrep:
              A 
    DOCC [   125 ]

  Energy converged.

  @DF-RHF Final Energy: -1720.25354345782353

   => Energetics <=

    Nuclear Repulsion Energy =           2982.7484935527136258
    One-Electron Energy =               -8294.7452542652317788
    Two-Electron Energy =                3591.7432172546946276
    Total Energy =                      -1720.2535434578235254



Properties will be evaluated at   0.000000,   0.000000,   0.000000 Bohr

Properties computed using the SCF density matrix

  Nuclear Dipole Moment: (a.u.)
     X:   -12.8500      Y:     5.9243      Z:     4.6194

  Electronic Dipole Moment: (a.u.)
     X:    12.8526      Y:    -6.0296      Z:    -2.6404

  Dipole Moment: (a.u.)
     X:     0.0026      Y:    -0.1053      Z:     1.9790     Total:     1.9817

  Dipole Moment: (Debye)
     X:     0.0065      Y:    -0.2675      Z:     5.0300     Total:     5.0371


*** tstop() called on hex15 at Tue Mar  6 02:58:27 2018
Module time:
	user time   =    8976.42 seconds =     149.61 minutes
	system time =      32.79 seconds =       0.55 minutes
	total time  =       4581 seconds =      76.35 minutes
Total time:
	user time   =    8976.42 seconds =     149.61 minutes
	system time =      32.79 seconds =       0.55 minutes
	total time  =       4581 seconds =      76.35 minutes

*** Psi4 exiting successfully. Buy a developer a beer!
