
    -----------------------------------------------------------------------
          Psi4: An Open-Source Ab Initio Electronic Structure Package
                               Psi4 1.2a1.dev875 

                         Git: Rev {symm_JK} 0ea9481 dirty


    R. M. Parrish, L. A. Burns, D. G. A. Smith, A. C. Simmonett,
    A. E. DePrince III, E. G. Hohenstein, U. Bozkaya, A. Yu. Sokolov,
    R. Di Remigio, R. M. Richard, J. F. Gonthier, A. M. James,
    H. R. McAlexander, A. Kumar, M. Saitow, X. Wang, B. P. Pritchard,
    P. Verma, H. F. Schaefer III, K. Patkowski, R. A. King, E. F. Valeev,
    F. A. Evangelista, J. M. Turney, T. D. Crawford, and C. D. Sherrill,
    J. Chem. Theory Comput. 13(7) pp 3185--3197 (2017).
    (doi: 10.1021/acs.jctc.7b00174)

    -----------------------------------------------------------------------


    Psi4 started on: Sunday, 04 March 2018 09:00PM

    Process ID:    562
    PSIDATADIR: /theoryfs2/ds/schieber/Gits/mspsi4/objdir3/stage/usr/local/psi4/share/psi4
    Memory:     500.0 MiB
    Threads:    6
    
  ==> Input File <==

--------------------------------------------------------------------------
memory 60 Gb

molecule protein_63 {
0 1
 N   18.626  30.444   6.627
 C   17.853  29.516   5.837
 C   16.945  30.292   4.886
 O   15.843  30.678   5.237
 C   17.047  28.642   6.811
 C   16.316  27.513   6.146
 O   16.236  27.458   4.905
 O   15.762  26.696   6.882
 N    4.567  24.042   8.795
 C    4.886  22.777   8.145
 C    6.265  22.720   7.521
 O    6.723  23.689   6.900
 N   17.407  27.054  -1.437
 C   17.227  26.751  -0.026
 C   18.555  26.446   0.653
 O   19.003  25.309   0.692
 C   16.258  25.572   0.084
 C   15.759  25.336   1.493
 O   16.399  25.780   2.453
 O   14.731  24.675   1.645
 N   19.106  26.199   3.688
 C   18.957  25.372   4.876
 C   18.845  23.903   4.520
 O   18.660  23.054   5.417
 N   20.536  20.559   2.918
 C   21.779  19.912   2.496
 C   21.693  19.374   1.107
 O   22.642  19.502   0.361
 C   22.169  18.827   3.447
 C   22.272  19.337   4.844
 O   22.714  20.482   5.029
 O   21.836  18.647   5.778
 H   18.180  30.990   7.295
 H   18.510  28.835   5.249
 H   16.336  29.276   7.377
 H   17.778  28.186   7.516
 H   15.845  26.702   7.843
 H    4.436  24.871   8.195
 H    4.744  21.930   8.802
 H    4.143  22.632   7.335
 H   17.860  26.421  -2.023
 H   16.724  27.595   0.500
 H   16.724  24.663  -0.337
 H   15.363  25.845  -0.519
 H   16.737  25.171   3.109
 H   18.314  26.771   3.377
 H   18.015  25.631   5.391
 H   19.792  25.567   5.577
 H   19.976  20.073   3.597
 H   22.602  20.664   2.537
 H   23.175  18.459   3.144
 H   21.465  17.966   3.392
 H   21.492  17.752   5.634
 H   19.646  30.419   6.619
 H   17.295  30.415   3.850
 H    4.454  24.117   9.806
 H    6.887  21.864   7.822
 H   16.947  27.858  -1.864
 H   19.060  27.284   1.155
 H   20.034  26.347   3.290
 H   18.824  23.654   3.449
 H   20.197  21.395   2.443
 H   20.727  18.956   0.786
}

set {
basis aug-cc-pvtz
scf_type df
guess sad
DF_SCF_TYPE SYMM_JK
}

energy('HF')
--------------------------------------------------------------------------

  Memory set to  55.879 GiB by Python driver.

*** tstart() called on hex15
*** at Sun Mar  4 21:00:02 2018

   => Loading Basis Set <=

    Name: AUG-CC-PVTZ
    Role: ORBITAL
    Keyword: BASIS
    atoms 1, 9, 13, 21, 25                                   entry N          line   281 file /theoryfs2/ds/schieber/Gits/mspsi4/objdir3/stage/usr/local/psi4/share/psi4/basis/aug-cc-pvtz.gbs 
    atoms 2-3, 5-6, 10-11, 14-15, 17-18, 22-23, 26-27, 29-30 entry C          line   235 file /theoryfs2/ds/schieber/Gits/mspsi4/objdir3/stage/usr/local/psi4/share/psi4/basis/aug-cc-pvtz.gbs 
    atoms 4, 7-8, 12, 16, 19-20, 24, 28, 31-32               entry O          line   327 file /theoryfs2/ds/schieber/Gits/mspsi4/objdir3/stage/usr/local/psi4/share/psi4/basis/aug-cc-pvtz.gbs 
    atoms 33-63                                              entry H          line    36 file /theoryfs2/ds/schieber/Gits/mspsi4/objdir3/stage/usr/local/psi4/share/psi4/basis/aug-cc-pvtz.gbs 


         ---------------------------------------------------------
                                   SCF
            by Justin Turney, Rob Parrish, Andy Simmonett
                             and Daniel Smith
                              RHF Reference
                        6 Threads,  57220 MiB Core
         ---------------------------------------------------------

  ==> Geometry <==

    Molecular point group: c1
    Full point group: C1

    Geometry (in Angstrom), charge = 0, multiplicity = 1:

       Center              X                  Y                   Z               Mass       
    ------------   -----------------  -----------------  -----------------  -----------------
           N          1.657504219370     5.864960045694     2.581113844373    14.003074004780
           C          0.884504219370     4.936960045694     1.791113844373    12.000000000000
           C         -0.023495780630     5.712960045694     0.840113844373    12.000000000000
           O         -1.125495780630     6.098960045694     1.191113844373    15.994914619560
           C          0.078504219370     4.062960045694     2.765113844373    12.000000000000
           C         -0.652495780630     2.933960045694     2.100113844373    12.000000000000
           O         -0.732495780630     2.878960045694     0.859113844373    15.994914619560
           O         -1.206495780630     2.116960045694     2.836113844373    15.994914619560
           N        -12.401495780630    -0.537039954306     4.749113844373    14.003074004780
           C        -12.082495780630    -1.802039954306     4.099113844373    12.000000000000
           C        -10.703495780630    -1.859039954306     3.475113844373    12.000000000000
           O        -10.245495780630    -0.890039954306     2.854113844373    15.994914619560
           N          0.438504219370     2.474960045694    -5.482886155627    14.003074004780
           C          0.258504219370     2.171960045694    -4.071886155627    12.000000000000
           C          1.586504219370     1.866960045694    -3.392886155627    12.000000000000
           O          2.034504219370     0.729960045694    -3.353886155627    15.994914619560
           C         -0.710495780630     0.992960045694    -3.961886155627    12.000000000000
           C         -1.209495780630     0.756960045694    -2.552886155627    12.000000000000
           O         -0.569495780630     1.200960045694    -1.592886155627    15.994914619560
           O         -2.237495780630     0.095960045694    -2.400886155627    15.994914619560
           N          2.137504219370     1.619960045694    -0.357886155627    14.003074004780
           C          1.988504219370     0.792960045694     0.830113844373    12.000000000000
           C          1.876504219370    -0.676039954306     0.474113844373    12.000000000000
           O          1.691504219370    -1.525039954306     1.371113844373    15.994914619560
           N          3.567504219370    -4.020039954306    -1.127886155627    14.003074004780
           C          4.810504219370    -4.667039954306    -1.549886155627    12.000000000000
           C          4.724504219370    -5.205039954306    -2.938886155627    12.000000000000
           O          5.673504219370    -5.077039954306    -3.684886155627    15.994914619560
           C          5.200504219370    -5.752039954306    -0.598886155627    12.000000000000
           C          5.303504219370    -5.242039954306     0.798113844373    12.000000000000
           O          5.745504219370    -4.097039954306     0.983113844373    15.994914619560
           O          4.867504219370    -5.932039954306     1.732113844373    15.994914619560
           H          1.211504219370     6.410960045694     3.249113844373     1.007825032070
           H          1.541504219370     4.255960045694     1.203113844373     1.007825032070
           H         -0.632495780630     4.696960045694     3.331113844373     1.007825032070
           H          0.809504219370     3.606960045694     3.470113844373     1.007825032070
           H         -1.123495780630     2.122960045694     3.797113844373     1.007825032070
           H        -12.532495780630     0.291960045694     4.149113844373     1.007825032070
           H        -12.224495780630    -2.649039954306     4.756113844373     1.007825032070
           H        -12.825495780630    -1.947039954306     3.289113844373     1.007825032070
           H          0.891504219370     1.841960045694    -6.068886155627     1.007825032070
           H         -0.244495780630     3.015960045694    -3.545886155627     1.007825032070
           H         -0.244495780630     0.083960045694    -4.382886155627     1.007825032070
           H         -1.605495780630     1.265960045694    -4.564886155627     1.007825032070
           H         -0.231495780630     0.591960045694    -0.936886155627     1.007825032070
           H          1.345504219370     2.191960045694    -0.668886155627     1.007825032070
           H          1.046504219370     1.051960045694     1.345113844373     1.007825032070
           H          2.823504219370     0.987960045694     1.531113844373     1.007825032070
           H          3.007504219370    -4.506039954306    -0.448886155627     1.007825032070
           H          5.633504219370    -3.915039954306    -1.508886155627     1.007825032070
           H          6.206504219370    -6.120039954306    -0.901886155627     1.007825032070
           H          4.496504219370    -6.613039954306    -0.653886155627     1.007825032070
           H          4.523504219370    -6.827039954306     1.588113844373     1.007825032070
           H          2.677504219370     5.839960045694     2.573113844373     1.007825032070
           H          0.326504219370     5.835960045694    -0.195886155627     1.007825032070
           H        -12.514495780630    -0.462039954306     5.760113844373     1.007825032070
           H        -10.081495780630    -2.715039954306     3.776113844373     1.007825032070
           H         -0.021495780630     3.278960045694    -5.909886155627     1.007825032070
           H          2.091504219370     2.704960045694    -2.890886155627     1.007825032070
           H          3.065504219370     1.767960045694    -0.755886155627     1.007825032070
           H          1.855504219370    -0.925039954306    -0.596886155627     1.007825032070
           H          3.228504219370    -3.184039954306    -1.602886155627     1.007825032070
           H          3.758504219370    -5.623039954306    -3.259886155627     1.007825032070

  Running in c1 symmetry.

  Rotational constants: A =      0.00221  B =      0.00111  C =      0.00093 [cm^-1]
  Rotational constants: A =     66.16714  B =     33.30218  C =     27.81539 [MHz]
  Nuclear repulsion = 2982.748493552713626

  Charge       = 0
  Multiplicity = 1
  Electrons    = 250
  Nalpha       = 125
  Nbeta        = 125

  ==> Algorithm <==

  SCF Algorithm Type is DF.
  DIIS enabled.
  MOM disabled.
  Fractional occupation disabled.
  Guess Type is SAD.
  Energy threshold   = 1.00e-06
  Density threshold  = 1.00e-06
  Integral threshold = 0.00e+00

  ==> Primary Basis <==

  Basis Set: AUG-CC-PVTZ
    Blend: AUG-CC-PVTZ
    Number of shells: 727
    Number of basis function: 2185
    Number of Cartesian functions: 2535
    Spherical Harmonics?: true
    Max angular momentum: 3

   => Loading Basis Set <=

    Name: (AUG-CC-PVTZ AUX)
    Role: JKFIT
    Keyword: DF_BASIS_SCF
    atoms 1, 9, 13, 21, 25                                   entry N          line   224 file /theoryfs2/ds/schieber/Gits/mspsi4/objdir3/stage/usr/local/psi4/share/psi4/basis/aug-cc-pvtz-jkfit.gbs 
    atoms 2-3, 5-6, 10-11, 14-15, 17-18, 22-23, 26-27, 29-30 entry C          line   162 file /theoryfs2/ds/schieber/Gits/mspsi4/objdir3/stage/usr/local/psi4/share/psi4/basis/aug-cc-pvtz-jkfit.gbs 
    atoms 4, 7-8, 12, 16, 19-20, 24, 28, 31-32               entry O          line   286 file /theoryfs2/ds/schieber/Gits/mspsi4/objdir3/stage/usr/local/psi4/share/psi4/basis/aug-cc-pvtz-jkfit.gbs 
    atoms 33-63                                              entry H          line    70 file /theoryfs2/ds/schieber/Gits/mspsi4/objdir3/stage/usr/local/psi4/share/psi4/basis/aug-cc-pvtz-jkfit.gbs 

  ==> Pre-Iterations <==

   -------------------------------------------------------
    Irrep   Nso     Nmo     Nalpha   Nbeta   Ndocc  Nsocc
   -------------------------------------------------------
     A       2185    2185       0       0       0       0
   -------------------------------------------------------
    Total    2185    2185     125     125     125       0
   -------------------------------------------------------

  ==> Integral Setup <==


    ==> DF_Helper memory announcement <==
        Turning off in-core AOs.  DF_Helper needs at least (114.397GB), but it only got (45GB)

    ==> DF_Helper <==
      nao           = 2185
      naux          = 4754
      Scwarz cutoff = 1.000000E-12
      mem (doubles) = 5625000000
      nthreads      = 6
      Algorithm     = STORE
      AO_core?      = 0
      MO_core?      = 0
      hold metric   = 0
      metric power  = -5.000000E-01
  Fitting condition = 1.000000E-12
  Mask sparsity (%) = (50.291723)


  Minimum eigenvalue in the overlap matrix is 1.6729246328E-06.
  Using Symmetric Orthogonalization.

  SCF Guess: Superposition of Atomic Densities via on-the-fly atomic UHF.

  ==> Iterations <==

                           Total Energy        Delta E     RMS |[F,P]|

   @DF-RHF iter   0: -1731.47842343222874   -1.73148e+03   1.20287e-02 
   @DF-RHF iter   1: -1718.95047477544313    1.25279e+01   1.64850e-03 
   @DF-RHF iter   2: -1719.68375113135971   -7.33276e-01   1.20201e-03 DIIS
   @DF-RHF iter   3: -1720.11178946137443   -4.28038e-01   2.39557e-04 DIIS
   @DF-RHF iter   4: -1720.14724701750151   -3.54576e-02   8.25077e-05 DIIS
   @DF-RHF iter   5: -1720.15230803313602   -5.06102e-03   3.27679e-05 DIIS
   @DF-RHF iter   6: -1720.15349508904728   -1.18706e-03   1.52845e-05 DIIS
   @DF-RHF iter   7: -1720.15382694891650   -3.31860e-04   7.13918e-06 DIIS
   @DF-RHF iter   8: -1720.15390187771277   -7.49288e-05   3.30145e-06 DIIS
   @DF-RHF iter   9: -1720.15392208689127   -2.02092e-05   1.43815e-06 DIIS
   @DF-RHF iter  10: -1720.15392663962075   -4.55273e-06   6.66777e-07 DIIS
   @DF-RHF iter  11: -1720.15392774071483   -1.10109e-06   2.83963e-07 DIIS
   @DF-RHF iter  12: -1720.15392791281852   -1.72104e-07   1.20713e-07 DIIS

  ==> Post-Iterations <==

    Orbital Energies (a.u.)
    -----------------------

    Doubly Occupied:                                                      

       1A    -20.645711     2A    -20.638136     3A    -20.604297  
       4A    -20.569919     5A    -20.561933     6A    -20.560071  
       7A    -20.559881     8A    -20.557397     9A    -20.540689  
      10A    -20.522074    11A    -20.517320    12A    -15.560235  
      13A    -15.554250    14A    -15.549670    15A    -15.545785  
      16A    -15.545037    17A    -11.396860    18A    -11.383786  
      19A    -11.367048    20A    -11.345670    21A    -11.338316  
      22A    -11.336740    23A    -11.332414    24A    -11.327628  
      25A    -11.297077    26A    -11.291361    27A    -11.281782  
      28A    -11.276903    29A    -11.274654    30A    -11.266306  
      31A    -11.264875    32A    -11.239350    33A     -1.528118  
      34A     -1.513816    35A     -1.499954    36A     -1.398399  
      37A     -1.393212    38A     -1.392404    39A     -1.371131  
      40A     -1.368470    41A     -1.357738    42A     -1.340989  
      43A     -1.333579    44A     -1.214612    45A     -1.203409  
      46A     -1.194270    47A     -1.185503    48A     -1.169799  
      49A     -1.056257    50A     -1.055857    51A     -1.044260  
      52A     -0.967677    53A     -0.964907    54A     -0.950174  
      55A     -0.940952    56A     -0.937925    57A     -0.906580  
      58A     -0.891421    59A     -0.875577    60A     -0.810259  
      61A     -0.803062    62A     -0.799302    63A     -0.796157  
      64A     -0.794931    65A     -0.747936    66A     -0.734276  
      67A     -0.732654    68A     -0.718736    69A     -0.712550  
      70A     -0.706144    71A     -0.699441    72A     -0.695544  
      73A     -0.693684    74A     -0.688236    75A     -0.685494  
      76A     -0.680214    77A     -0.666883    78A     -0.665948  
      79A     -0.662614    80A     -0.659097    81A     -0.658659  
      82A     -0.654079    83A     -0.649364    84A     -0.643784  
      85A     -0.635156    86A     -0.631268    87A     -0.630427  
      88A     -0.629532    89A     -0.626476    90A     -0.623113  
      91A     -0.610672    92A     -0.609633    93A     -0.590391  
      94A     -0.577383    95A     -0.573435    96A     -0.567792  
      97A     -0.562682    98A     -0.559137    99A     -0.550594  
     100A     -0.549428   101A     -0.533912   102A     -0.531728  
     103A     -0.530791   104A     -0.521615   105A     -0.515543  
     106A     -0.506838   107A     -0.501741   108A     -0.489975  
     109A     -0.488215   110A     -0.474168   111A     -0.462301  
     112A     -0.460034   113A     -0.457036   114A     -0.448781  
     115A     -0.444699   116A     -0.443584   117A     -0.441315  
     118A     -0.440534   119A     -0.435485   120A     -0.433285  
     121A     -0.386464   122A     -0.382125   123A     -0.378086  
     124A     -0.376749   125A     -0.369612  

    Virtual:                                                              

     126A      0.014532   127A      0.017542   128A      0.020485  
     129A      0.026415   130A      0.027657   131A      0.033936  
     132A      0.035351   133A      0.038433   134A      0.039162  
     135A      0.042339   136A      0.043518   137A      0.044458  
     138A      0.046102   139A      0.049583   140A      0.051353  
     141A      0.052637   142A      0.058611   143A      0.061010  
     144A      0.061544   145A      0.064341   146A      0.066355  
     147A      0.067217   148A      0.071227   149A      0.073311  
     150A      0.077310   151A      0.081266   152A      0.081506  
     153A      0.082631   154A      0.085119   155A      0.088745  
     156A      0.090891   157A      0.091879   158A      0.093313  
     159A      0.097285   160A      0.097615   161A      0.098947  
     162A      0.099461   163A      0.101974   164A      0.104128  
     165A      0.104501   166A      0.107179   167A      0.109035  
     168A      0.110808   169A      0.112758   170A      0.114227  
     171A      0.116901   172A      0.118898   173A      0.121482  
     174A      0.122895   175A      0.123547   176A      0.126648  
     177A      0.127727   178A      0.128903   179A      0.130241  
     180A      0.131609   181A      0.133119   182A      0.134133  
     183A      0.135076   184A      0.136002   185A      0.137077  
     186A      0.138745   187A      0.138959   188A      0.142605  
     189A      0.143016   190A      0.145066   191A      0.146247  
     192A      0.147465   193A      0.148167   194A      0.149537  
     195A      0.150648   196A      0.151404   197A      0.153043  
     198A      0.154949   199A      0.156783   200A      0.158955  
     201A      0.160016   202A      0.162820   203A      0.163464  
     204A      0.166280   205A      0.167161   206A      0.169820  
     207A      0.169975   208A      0.174021   209A      0.176099  
     210A      0.176986   211A      0.178166   212A      0.179596  
     213A      0.181722   214A      0.184458   215A      0.185120  
     216A      0.186008   217A      0.187844   218A      0.189441  
     219A      0.191448   220A      0.193083   221A      0.194727  
     222A      0.198554   223A      0.201026   224A      0.202630  
     225A      0.203636   226A      0.204314   227A      0.206175  
     228A      0.209047   229A      0.212079   230A      0.214453  
     231A      0.215571   232A      0.218526   233A      0.219788  
     234A      0.221113   235A      0.223277   236A      0.225441  
     237A      0.227106   238A      0.229421   239A      0.232802  
     240A      0.234721   241A      0.234951   242A      0.237888  
     243A      0.241805   244A      0.243925   245A      0.245712  
     246A      0.246781   247A      0.247952   248A      0.248587  
     249A      0.251915   250A      0.253334   251A      0.255593  
     252A      0.256940   253A      0.258793   254A      0.260960  
     255A      0.264143   256A      0.265381   257A      0.267924  
     258A      0.269964   259A      0.271814   260A      0.272566  
     261A      0.273937   262A      0.274559   263A      0.276008  
     264A      0.278344   265A      0.281576   266A      0.283509  
     267A      0.285727   268A      0.288886   269A      0.290210  
     270A      0.290490   271A      0.292363   272A      0.295690  
     273A      0.296273   274A      0.297891   275A      0.298925  
     276A      0.300463   277A      0.301530   278A      0.303502  
     279A      0.304401   280A      0.306196   281A      0.306895  
     282A      0.308043   283A      0.310486   284A      0.312429  
     285A      0.314221   286A      0.315608   287A      0.317708  
     288A      0.317787   289A      0.320699   290A      0.321149  
     291A      0.323144   292A      0.323635   293A      0.325026  
     294A      0.326515   295A      0.327077   296A      0.328733  
     297A      0.328821   298A      0.331299   299A      0.332362  
     300A      0.335840   301A      0.337390   302A      0.338108  
     303A      0.340799   304A      0.342114   305A      0.344784  
     306A      0.346777   307A      0.349532   308A      0.350599  
     309A      0.352738   310A      0.353452   311A      0.354933  
     312A      0.357396   313A      0.359236   314A      0.359637  
     315A      0.361042   316A      0.362338   317A      0.364010  
     318A      0.365345   319A      0.365870   320A      0.367562  
     321A      0.368530   322A      0.372181   323A      0.374209  
     324A      0.375468   325A      0.375626   326A      0.376962  
     327A      0.378033   328A      0.379138   329A      0.380810  
     330A      0.382267   331A      0.383717   332A      0.385186  
     333A      0.387344   334A      0.389309   335A      0.390600  
     336A      0.392084   337A      0.393032   338A      0.394807  
     339A      0.396055   340A      0.399547   341A      0.402557  
     342A      0.403388   343A      0.404330   344A      0.406062  
     345A      0.407311   346A      0.409959   347A      0.413012  
     348A      0.414084   349A      0.414720   350A      0.416557  
     351A      0.418461   352A      0.420257   353A      0.421533  
     354A      0.423497   355A      0.424837   356A      0.426735  
     357A      0.428214   358A      0.428540   359A      0.430826  
     360A      0.431463   361A      0.433733   362A      0.434230  
     363A      0.435035   364A      0.436244   365A      0.439433  
     366A      0.440820   367A      0.442446   368A      0.444662  
     369A      0.446174   370A      0.447363   371A      0.448745  
     372A      0.451122   373A      0.451830   374A      0.453276  
     375A      0.456304   376A      0.459120   377A      0.460062  
     378A      0.462087   379A      0.464135   380A      0.465173  
     381A      0.466929   382A      0.468928   383A      0.471354  
     384A      0.472460   385A      0.474762   386A      0.476443  
     387A      0.478387   388A      0.482219   389A      0.484215  
     390A      0.484718   391A      0.486749   392A      0.488120  
     393A      0.489052   394A      0.490779   395A      0.492209  
     396A      0.496664   397A      0.498256   398A      0.499423  
     399A      0.502210   400A      0.503442   401A      0.503993  
     402A      0.506261   403A      0.507817   404A      0.508675  
     405A      0.509709   406A      0.511610   407A      0.514172  
     408A      0.515899   409A      0.517700   410A      0.518807  
     411A      0.520329   412A      0.521643   413A      0.524479  
     414A      0.524988   415A      0.526737   416A      0.528669  
     417A      0.531213   418A      0.531987   419A      0.535053  
     420A      0.535312   421A      0.537801   422A      0.539260  
     423A      0.540905   424A      0.541882   425A      0.543793  
     426A      0.544445   427A      0.546296   428A      0.551114  
     429A      0.551312   430A      0.553605   431A      0.553848  
     432A      0.556247   433A      0.558218   434A      0.561022  
     435A      0.563232   436A      0.563679   437A      0.566787  
     438A      0.569491   439A      0.570240   440A      0.573041  
     441A      0.574705   442A      0.577539   443A      0.580342  
     444A      0.582173   445A      0.583417   446A      0.584495  
     447A      0.587672   448A      0.589153   449A      0.591177  
     450A      0.593444   451A      0.595487   452A      0.598756  
     453A      0.599928   454A      0.600493   455A      0.603915  
     456A      0.605150   457A      0.605940   458A      0.606966  
     459A      0.607976   460A      0.611195   461A      0.614296  
     462A      0.614641   463A      0.618519   464A      0.619514  
     465A      0.621350   466A      0.622605   467A      0.624818  
     468A      0.627385   469A      0.631571   470A      0.634366  
     471A      0.636366   472A      0.638041   473A      0.640822  
     474A      0.641105   475A      0.642226   476A      0.645711  
     477A      0.647067   478A      0.647720   479A      0.650591  
     480A      0.651628   481A      0.654068   482A      0.658218  
     483A      0.659551   484A      0.660936   485A      0.661707  
     486A      0.662603   487A      0.664062   488A      0.664844  
     489A      0.668197   490A      0.670704   491A      0.673234  
     492A      0.674795   493A      0.676485   494A      0.677893  
     495A      0.679260   496A      0.679507   497A      0.683663  
     498A      0.683965   499A      0.688799   500A      0.690530  
     501A      0.692759   502A      0.693753   503A      0.696666  
     504A      0.699423   505A      0.702840   506A      0.704453  
     507A      0.704695   508A      0.706732   509A      0.711281  
     510A      0.712729   511A      0.714001   512A      0.716348  
     513A      0.716379   514A      0.721977   515A      0.724561  
     516A      0.724802   517A      0.728068   518A      0.729480  
     519A      0.730702   520A      0.735258   521A      0.737461  
     522A      0.738539   523A      0.741889   524A      0.743587  
     525A      0.745950   526A      0.749857   527A      0.753746  
     528A      0.754934   529A      0.758319   530A      0.759567  
     531A      0.765039   532A      0.765917   533A      0.767351  
     534A      0.769227   535A      0.771826   536A      0.775529  
     537A      0.777522   538A      0.781378   539A      0.782748  
     540A      0.786369   541A      0.787895   542A      0.790968  
     543A      0.793110   544A      0.795338   545A      0.797869  
     546A      0.798945   547A      0.801651   548A      0.802993  
     549A      0.804909   550A      0.806547   551A      0.809587  
     552A      0.812821   553A      0.814159   554A      0.814636  
     555A      0.817895   556A      0.820929   557A      0.821863  
     558A      0.826707   559A      0.828013   560A      0.829052  
     561A      0.829479   562A      0.830600   563A      0.832664  
     564A      0.833829   565A      0.838646   566A      0.843414  
     567A      0.846747   568A      0.848319   569A      0.850071  
     570A      0.850725   571A      0.853036   572A      0.855177  
     573A      0.858731   574A      0.861725   575A      0.863568  
     576A      0.866580   577A      0.866718   578A      0.867923  
     579A      0.870114   580A      0.871297   581A      0.871612  
     582A      0.872361   583A      0.873244   584A      0.877419  
     585A      0.881896   586A      0.885267   587A      0.888008  
     588A      0.890965   589A      0.891808   590A      0.894878  
     591A      0.898410   592A      0.900237   593A      0.903069  
     594A      0.907033   595A      0.907975   596A      0.910021  
     597A      0.912944   598A      0.913548   599A      0.915328  
     600A      0.918851   601A      0.919884   602A      0.922353  
     603A      0.922565   604A      0.924648   605A      0.926481  
     606A      0.931206   607A      0.933645   608A      0.935578  
     609A      0.936987   610A      0.937530   611A      0.938659  
     612A      0.939401   613A      0.941491   614A      0.941776  
     615A      0.942758   616A      0.946231   617A      0.949154  
     618A      0.951059   619A      0.952695   620A      0.953017  
     621A      0.957909   622A      0.960064   623A      0.963402  
     624A      0.964571   625A      0.967892   626A      0.968415  
     627A      0.970430   628A      0.971482   629A      0.973334  
     630A      0.973594   631A      0.974708   632A      0.977505  
     633A      0.979284   634A      0.982154   635A      0.983909  
     636A      0.987701   637A      0.989106   638A      0.990250  
     639A      0.992241   640A      0.993257   641A      0.995643  
     642A      0.996778   643A      0.997513   644A      0.997987  
     645A      1.000597   646A      1.001865   647A      1.004755  
     648A      1.005644   649A      1.007862   650A      1.008692  
     651A      1.010548   652A      1.011636   653A      1.012850  
     654A      1.018511   655A      1.020523   656A      1.020956  
     657A      1.021580   658A      1.025387   659A      1.026205  
     660A      1.027545   661A      1.028820   662A      1.033798  
     663A      1.035107   664A      1.036849   665A      1.038073  
     666A      1.040483   667A      1.042522   668A      1.043376  
     669A      1.047196   670A      1.047665   671A      1.047872  
     672A      1.050546   673A      1.052251   674A      1.052523  
     675A      1.054690   676A      1.055760   677A      1.058319  
     678A      1.060797   679A      1.064581   680A      1.066071  
     681A      1.068745   682A      1.070434   683A      1.071257  
     684A      1.074028   685A      1.076977   686A      1.078878  
     687A      1.082087   688A      1.082757   689A      1.084309  
     690A      1.084742   691A      1.085270   692A      1.088554  
     693A      1.090443   694A      1.091199   695A      1.093355  
     696A      1.096847   697A      1.097856   698A      1.098885  
     699A      1.101812   700A      1.107812   701A      1.108166  
     702A      1.110612   703A      1.112672   704A      1.113592  
     705A      1.115848   706A      1.118018   707A      1.119213  
     708A      1.120039   709A      1.123474   710A      1.125778  
     711A      1.126852   712A      1.131075   713A      1.132953  
     714A      1.133494   715A      1.137301   716A      1.138642  
     717A      1.143308   718A      1.144430   719A      1.145538  
     720A      1.146798   721A      1.148071   722A      1.148156  
     723A      1.149569   724A      1.151580   725A      1.157210  
     726A      1.159381   727A      1.161137   728A      1.162230  
     729A      1.163627   730A      1.164771   731A      1.165964  
     732A      1.167471   733A      1.170107   734A      1.173074  
     735A      1.173786   736A      1.176749   737A      1.180797  
     738A      1.182298   739A      1.183184   740A      1.184097  
     741A      1.185508   742A      1.190986   743A      1.193044  
     744A      1.195182   745A      1.198266   746A      1.200585  
     747A      1.202748   748A      1.206535   749A      1.209076  
     750A      1.210559   751A      1.211785   752A      1.213632  
     753A      1.214097   754A      1.214728   755A      1.217334  
     756A      1.221818   757A      1.223211   758A      1.223686  
     759A      1.226453   760A      1.228955   761A      1.230477  
     762A      1.231801   763A      1.234945   764A      1.238074  
     765A      1.241681   766A      1.243140   767A      1.244503  
     768A      1.244950   769A      1.248557   770A      1.251537  
     771A      1.254089   772A      1.255959   773A      1.257351  
     774A      1.258418   775A      1.261531   776A      1.262836  
     777A      1.267181   778A      1.268764   779A      1.270874  
     780A      1.274237   781A      1.275330   782A      1.276199  
     783A      1.280462   784A      1.284751   785A      1.285177  
     786A      1.287373   787A      1.288299   788A      1.289550  
     789A      1.292592   790A      1.296545   791A      1.297320  
     792A      1.298583   793A      1.302656   794A      1.305809  
     795A      1.307784   796A      1.310228   797A      1.311203  
     798A      1.313944   799A      1.315842   800A      1.316905  
     801A      1.321915   802A      1.322497   803A      1.325200  
     804A      1.329622   805A      1.335349   806A      1.337405  
     807A      1.338505   808A      1.344344   809A      1.344845  
     810A      1.346498   811A      1.348630   812A      1.349549  
     813A      1.352347   814A      1.354472   815A      1.360285  
     816A      1.365273   817A      1.366597   818A      1.367437  
     819A      1.369015   820A      1.370712   821A      1.376538  
     822A      1.378116   823A      1.379051   824A      1.382071  
     825A      1.383646   826A      1.386634   827A      1.388567  
     828A      1.392043   829A      1.395553   830A      1.396104  
     831A      1.398071   832A      1.400898   833A      1.402995  
     834A      1.405376   835A      1.408970   836A      1.409376  
     837A      1.414152   838A      1.414812   839A      1.416197  
     840A      1.420176   841A      1.424172   842A      1.424656  
     843A      1.426799   844A      1.430653   845A      1.433786  
     846A      1.433933   847A      1.437756   848A      1.439070  
     849A      1.440853   850A      1.443249   851A      1.445687  
     852A      1.446208   853A      1.450031   854A      1.454448  
     855A      1.454772   856A      1.460864   857A      1.461620  
     858A      1.463698   859A      1.469081   860A      1.470531  
     861A      1.471566   862A      1.473244   863A      1.475229  
     864A      1.475400   865A      1.480406   866A      1.484682  
     867A      1.489125   868A      1.490458   869A      1.494630  
     870A      1.495437   871A      1.496998   872A      1.499483  
     873A      1.500778   874A      1.502484   875A      1.506522  
     876A      1.511418   877A      1.513616   878A      1.514485  
     879A      1.518094   880A      1.518555   881A      1.520279  
     882A      1.523121   883A      1.527218   884A      1.529690  
     885A      1.532080   886A      1.535074   887A      1.536647  
     888A      1.537505   889A      1.541257   890A      1.542250  
     891A      1.544212   892A      1.546442   893A      1.549225  
     894A      1.551737   895A      1.556450   896A      1.556573  
     897A      1.559708   898A      1.563938   899A      1.565143  
     900A      1.565479   901A      1.566353   902A      1.569009  
     903A      1.570861   904A      1.572093   905A      1.578483  
     906A      1.580209   907A      1.581293   908A      1.583540  
     909A      1.586035   910A      1.589092   911A      1.591643  
     912A      1.594225   913A      1.595161   914A      1.599184  
     915A      1.599936   916A      1.603562   917A      1.604158  
     918A      1.605295   919A      1.609489   920A      1.612222  
     921A      1.613588   922A      1.616751   923A      1.617831  
     924A      1.620642   925A      1.624082   926A      1.627310  
     927A      1.629517   928A      1.632187   929A      1.638377  
     930A      1.640397   931A      1.643703   932A      1.644336  
     933A      1.646759   934A      1.648801   935A      1.652949  
     936A      1.654370   937A      1.655128   938A      1.659555  
     939A      1.663297   940A      1.664233   941A      1.665338  
     942A      1.667769   943A      1.673762   944A      1.676869  
     945A      1.680057   946A      1.682191   947A      1.687736  
     948A      1.689520   949A      1.692592   950A      1.695642  
     951A      1.697626   952A      1.699470   953A      1.704085  
     954A      1.705507   955A      1.708323   956A      1.711322  
     957A      1.713129   958A      1.717181   959A      1.718990  
     960A      1.721559   961A      1.723798   962A      1.729706  
     963A      1.730346   964A      1.730480   965A      1.733046  
     966A      1.737132   967A      1.740323   968A      1.742020  
     969A      1.744980   970A      1.745695   971A      1.746202  
     972A      1.747610   973A      1.752466   974A      1.755199  
     975A      1.760720   976A      1.761978   977A      1.765659  
     978A      1.768545   979A      1.771400   980A      1.776190  
     981A      1.776902   982A      1.776999   983A      1.779542  
     984A      1.783044   985A      1.786800   986A      1.789433  
     987A      1.792387   988A      1.797015   989A      1.798589  
     990A      1.800723   991A      1.804376   992A      1.806085  
     993A      1.809120   994A      1.809711   995A      1.813253  
     996A      1.814959   997A      1.819211   998A      1.821756  
     999A      1.829522  1000A      1.831249  1001A      1.835858  
    1002A      1.837911  1003A      1.840790  1004A      1.841306  
    1005A      1.844753  1006A      1.846626  1007A      1.848231  
    1008A      1.851705  1009A      1.854382  1010A      1.858994  
    1011A      1.860487  1012A      1.861183  1013A      1.863918  
    1014A      1.869180  1015A      1.870825  1016A      1.873356  
    1017A      1.878067  1018A      1.878888  1019A      1.882908  
    1020A      1.885163  1021A      1.886777  1022A      1.890696  
    1023A      1.890897  1024A      1.895323  1025A      1.897152  
    1026A      1.899626  1027A      1.900936  1028A      1.903501  
    1029A      1.906930  1030A      1.914663  1031A      1.915379  
    1032A      1.920596  1033A      1.922715  1034A      1.926943  
    1035A      1.930163  1036A      1.931600  1037A      1.934306  
    1038A      1.935704  1039A      1.939690  1040A      1.943502  
    1041A      1.945270  1042A      1.947703  1043A      1.949782  
    1044A      1.950541  1045A      1.957982  1046A      1.958465  
    1047A      1.964120  1048A      1.969595  1049A      1.972259  
    1050A      1.976225  1051A      1.976778  1052A      1.977907  
    1053A      1.980450  1054A      1.983555  1055A      1.984578  
    1056A      1.988175  1057A      1.990449  1058A      1.997774  
    1059A      2.001590  1060A      2.003414  1061A      2.005803  
    1062A      2.012899  1063A      2.013535  1064A      2.019314  
    1065A      2.021669  1066A      2.026196  1067A      2.028690  
    1068A      2.033890  1069A      2.035370  1070A      2.038240  
    1071A      2.044132  1072A      2.047139  1073A      2.051457  
    1074A      2.055435  1075A      2.060182  1076A      2.063546  
    1077A      2.066020  1078A      2.066899  1079A      2.067243  
    1080A      2.069581  1081A      2.073608  1082A      2.074581  
    1083A      2.075970  1084A      2.078380  1085A      2.086476  
    1086A      2.087326  1087A      2.088634  1088A      2.090346  
    1089A      2.091055  1090A      2.100492  1091A      2.102445  
    1092A      2.105943  1093A      2.111828  1094A      2.118249  
    1095A      2.123782  1096A      2.127498  1097A      2.128287  
    1098A      2.129879  1099A      2.132708  1100A      2.136348  
    1101A      2.143334  1102A      2.144789  1103A      2.145325  
    1104A      2.146444  1105A      2.150914  1106A      2.157768  
    1107A      2.160890  1108A      2.167783  1109A      2.171705  
    1110A      2.175018  1111A      2.178443  1112A      2.182207  
    1113A      2.182967  1114A      2.187113  1115A      2.190256  
    1116A      2.192994  1117A      2.196731  1118A      2.203292  
    1119A      2.206930  1120A      2.213509  1121A      2.217721  
    1122A      2.221886  1123A      2.222167  1124A      2.226630  
    1125A      2.229395  1126A      2.237078  1127A      2.239028  
    1128A      2.242320  1129A      2.245228  1130A      2.249196  
    1131A      2.249846  1132A      2.254596  1133A      2.257483  
    1134A      2.260049  1135A      2.263448  1136A      2.267916  
    1137A      2.276985  1138A      2.279660  1139A      2.279926  
    1140A      2.282965  1141A      2.284021  1142A      2.289652  
    1143A      2.296909  1144A      2.303651  1145A      2.307766  
    1146A      2.310077  1147A      2.314523  1148A      2.315499  
    1149A      2.319367  1150A      2.319543  1151A      2.323254  
    1152A      2.328183  1153A      2.333591  1154A      2.335892  
    1155A      2.342074  1156A      2.350259  1157A      2.351154  
    1158A      2.353132  1159A      2.358462  1160A      2.360530  
    1161A      2.363887  1162A      2.366518  1163A      2.366999  
    1164A      2.379573  1165A      2.383695  1166A      2.385038  
    1167A      2.388677  1168A      2.393868  1169A      2.396712  
    1170A      2.400608  1171A      2.406216  1172A      2.407980  
    1173A      2.411774  1174A      2.412537  1175A      2.417711  
    1176A      2.421393  1177A      2.425013  1178A      2.430820  
    1179A      2.434780  1180A      2.436668  1181A      2.439364  
    1182A      2.440328  1183A      2.441930  1184A      2.452001  
    1185A      2.454165  1186A      2.455064  1187A      2.459025  
    1188A      2.464760  1189A      2.468243  1190A      2.469685  
    1191A      2.473152  1192A      2.474117  1193A      2.482579  
    1194A      2.490421  1195A      2.494500  1196A      2.497420  
    1197A      2.499219  1198A      2.501779  1199A      2.505253  
    1200A      2.505999  1201A      2.506847  1202A      2.512906  
    1203A      2.516716  1204A      2.522003  1205A      2.524987  
    1206A      2.528120  1207A      2.529086  1208A      2.534996  
    1209A      2.535270  1210A      2.536965  1211A      2.539729  
    1212A      2.542673  1213A      2.549971  1214A      2.554174  
    1215A      2.557428  1216A      2.560444  1217A      2.564764  
    1218A      2.565743  1219A      2.568720  1220A      2.573383  
    1221A      2.574621  1222A      2.580034  1223A      2.580217  
    1224A      2.582691  1225A      2.589216  1226A      2.591222  
    1227A      2.596214  1228A      2.600844  1229A      2.605628  
    1230A      2.607872  1231A      2.611740  1232A      2.614323  
    1233A      2.621403  1234A      2.623549  1235A      2.626301  
    1236A      2.626935  1237A      2.631851  1238A      2.634550  
    1239A      2.637642  1240A      2.643521  1241A      2.645989  
    1242A      2.647387  1243A      2.651320  1244A      2.659156  
    1245A      2.661269  1246A      2.667174  1247A      2.670437  
    1248A      2.670596  1249A      2.672174  1250A      2.676496  
    1251A      2.677599  1252A      2.693474  1253A      2.695173  
    1254A      2.695893  1255A      2.697022  1256A      2.699595  
    1257A      2.705500  1258A      2.708209  1259A      2.708857  
    1260A      2.713518  1261A      2.720215  1262A      2.721928  
    1263A      2.729050  1264A      2.731856  1265A      2.732730  
    1266A      2.737520  1267A      2.738688  1268A      2.742123  
    1269A      2.746753  1270A      2.750976  1271A      2.754890  
    1272A      2.758531  1273A      2.764006  1274A      2.767454  
    1275A      2.770465  1276A      2.772303  1277A      2.778043  
    1278A      2.783414  1279A      2.783686  1280A      2.788008  
    1281A      2.791422  1282A      2.796611  1283A      2.804087  
    1284A      2.809011  1285A      2.810294  1286A      2.815915  
    1287A      2.818824  1288A      2.824083  1289A      2.829343  
    1290A      2.832089  1291A      2.832754  1292A      2.835769  
    1293A      2.840219  1294A      2.844254  1295A      2.846699  
    1296A      2.856277  1297A      2.860866  1298A      2.862527  
    1299A      2.867944  1300A      2.868628  1301A      2.871922  
    1302A      2.872439  1303A      2.883441  1304A      2.888233  
    1305A      2.894413  1306A      2.903788  1307A      2.908115  
    1308A      2.909248  1309A      2.910650  1310A      2.913968  
    1311A      2.918634  1312A      2.923223  1313A      2.924308  
    1314A      2.928902  1315A      2.929766  1316A      2.932165  
    1317A      2.939938  1318A      2.940595  1319A      2.947535  
    1320A      2.949939  1321A      2.958379  1322A      2.961474  
    1323A      2.963218  1324A      2.967638  1325A      2.972991  
    1326A      2.977760  1327A      2.982126  1328A      2.988129  
    1329A      2.991527  1330A      2.996090  1331A      3.004658  
    1332A      3.009134  1333A      3.015816  1334A      3.025121  
    1335A      3.030333  1336A      3.033846  1337A      3.034947  
    1338A      3.038521  1339A      3.040105  1340A      3.047554  
    1341A      3.050318  1342A      3.062403  1343A      3.065854  
    1344A      3.070241  1345A      3.078204  1346A      3.083805  
    1347A      3.090007  1348A      3.092750  1349A      3.097634  
    1350A      3.100220  1351A      3.105408  1352A      3.113515  
    1353A      3.123528  1354A      3.127278  1355A      3.131040  
    1356A      3.138262  1357A      3.139564  1358A      3.140893  
    1359A      3.145076  1360A      3.152093  1361A      3.157873  
    1362A      3.159627  1363A      3.173215  1364A      3.182075  
    1365A      3.190481  1366A      3.194434  1367A      3.194891  
    1368A      3.200108  1369A      3.208338  1370A      3.224665  
    1371A      3.232113  1372A      3.241999  1373A      3.245572  
    1374A      3.248422  1375A      3.250313  1376A      3.252438  
    1377A      3.266900  1378A      3.271377  1379A      3.287024  
    1380A      3.296115  1381A      3.297507  1382A      3.302409  
    1383A      3.313865  1384A      3.331970  1385A      3.340230  
    1386A      3.348043  1387A      3.351615  1388A      3.358959  
    1389A      3.363628  1390A      3.371280  1391A      3.381876  
    1392A      3.391029  1393A      3.397853  1394A      3.407434  
    1395A      3.409058  1396A      3.413780  1397A      3.422059  
    1398A      3.428639  1399A      3.430444  1400A      3.443015  
    1401A      3.455226  1402A      3.459258  1403A      3.467291  
    1404A      3.469093  1405A      3.475689  1406A      3.481442  
    1407A      3.485971  1408A      3.491485  1409A      3.494613  
    1410A      3.498811  1411A      3.501915  1412A      3.502382  
    1413A      3.514692  1414A      3.520088  1415A      3.520513  
    1416A      3.526812  1417A      3.531879  1418A      3.535968  
    1419A      3.539679  1420A      3.540681  1421A      3.546776  
    1422A      3.554878  1423A      3.558745  1424A      3.569021  
    1425A      3.570844  1426A      3.580615  1427A      3.581984  
    1428A      3.589870  1429A      3.595537  1430A      3.600675  
    1431A      3.604711  1432A      3.616105  1433A      3.618827  
    1434A      3.630022  1435A      3.636035  1436A      3.638506  
    1437A      3.645463  1438A      3.653613  1439A      3.658656  
    1440A      3.661089  1441A      3.663812  1442A      3.665704  
    1443A      3.668870  1444A      3.670756  1445A      3.672957  
    1446A      3.677745  1447A      3.686588  1448A      3.689705  
    1449A      3.698309  1450A      3.701879  1451A      3.704997  
    1452A      3.714734  1453A      3.717226  1454A      3.725784  
    1455A      3.731432  1456A      3.733754  1457A      3.735688  
    1458A      3.735903  1459A      3.744662  1460A      3.745995  
    1461A      3.752894  1462A      3.757449  1463A      3.764064  
    1464A      3.772415  1465A      3.774732  1466A      3.777018  
    1467A      3.784085  1468A      3.795214  1469A      3.797718  
    1470A      3.802308  1471A      3.810585  1472A      3.814556  
    1473A      3.815114  1474A      3.818570  1475A      3.824011  
    1476A      3.834368  1477A      3.843451  1478A      3.844393  
    1479A      3.845790  1480A      3.848676  1481A      3.853369  
    1482A      3.858051  1483A      3.862765  1484A      3.869445  
    1485A      3.874745  1486A      3.878496  1487A      3.883367  
    1488A      3.883461  1489A      3.884959  1490A      3.889934  
    1491A      3.893954  1492A      3.895693  1493A      3.895919  
    1494A      3.897148  1495A      3.904590  1496A      3.911257  
    1497A      3.914789  1498A      3.923353  1499A      3.923961  
    1500A      3.926346  1501A      3.931238  1502A      3.942502  
    1503A      3.948553  1504A      3.949403  1505A      3.949788  
    1506A      3.960267  1507A      3.965230  1508A      3.972576  
    1509A      3.975569  1510A      3.982457  1511A      3.987052  
    1512A      3.990243  1513A      3.996613  1514A      4.000162  
    1515A      4.004909  1516A      4.007384  1517A      4.008908  
    1518A      4.014707  1519A      4.020406  1520A      4.028254  
    1521A      4.029158  1522A      4.037619  1523A      4.039249  
    1524A      4.041960  1525A      4.049700  1526A      4.051211  
    1527A      4.053209  1528A      4.061870  1529A      4.062802  
    1530A      4.063117  1531A      4.068405  1532A      4.071038  
    1533A      4.076861  1534A      4.080295  1535A      4.080729  
    1536A      4.084600  1537A      4.085816  1538A      4.093166  
    1539A      4.095143  1540A      4.096174  1541A      4.099817  
    1542A      4.106703  1543A      4.109005  1544A      4.115408  
    1545A      4.120605  1546A      4.123943  1547A      4.131115  
    1548A      4.133751  1549A      4.134259  1550A      4.135688  
    1551A      4.145612  1552A      4.150845  1553A      4.153306  
    1554A      4.157701  1555A      4.159425  1556A      4.163053  
    1557A      4.166300  1558A      4.168809  1559A      4.172213  
    1560A      4.182769  1561A      4.185084  1562A      4.192067  
    1563A      4.195830  1564A      4.200045  1565A      4.204046  
    1566A      4.204809  1567A      4.209545  1568A      4.213764  
    1569A      4.215318  1570A      4.225841  1571A      4.226700  
    1572A      4.230734  1573A      4.238147  1574A      4.240366  
    1575A      4.245167  1576A      4.251954  1577A      4.252522  
    1578A      4.257057  1579A      4.258715  1580A      4.262679  
    1581A      4.266355  1582A      4.270716  1583A      4.273400  
    1584A      4.277975  1585A      4.280747  1586A      4.284576  
    1587A      4.291866  1588A      4.292694  1589A      4.297310  
    1590A      4.300428  1591A      4.305596  1592A      4.309281  
    1593A      4.311369  1594A      4.318392  1595A      4.320218  
    1596A      4.325977  1597A      4.326875  1598A      4.328203  
    1599A      4.331375  1600A      4.337041  1601A      4.338560  
    1602A      4.340068  1603A      4.342439  1604A      4.345380  
    1605A      4.350986  1606A      4.353345  1607A      4.356625  
    1608A      4.361334  1609A      4.361522  1610A      4.371938  
    1611A      4.374645  1612A      4.379634  1613A      4.380121  
    1614A      4.386303  1615A      4.390123  1616A      4.395078  
    1617A      4.402423  1618A      4.403953  1619A      4.410830  
    1620A      4.412399  1621A      4.412513  1622A      4.416327  
    1623A      4.418325  1624A      4.424528  1625A      4.429805  
    1626A      4.434334  1627A      4.438109  1628A      4.438926  
    1629A      4.446968  1630A      4.449018  1631A      4.458627  
    1632A      4.461557  1633A      4.463312  1634A      4.463808  
    1635A      4.469976  1636A      4.475180  1637A      4.482082  
    1638A      4.487978  1639A      4.490328  1640A      4.491689  
    1641A      4.492560  1642A      4.498999  1643A      4.502685  
    1644A      4.505720  1645A      4.510257  1646A      4.513298  
    1647A      4.514481  1648A      4.521503  1649A      4.526871  
    1650A      4.528760  1651A      4.530230  1652A      4.538623  
    1653A      4.540109  1654A      4.541315  1655A      4.544321  
    1656A      4.544911  1657A      4.548967  1658A      4.554077  
    1659A      4.564598  1660A      4.568407  1661A      4.576098  
    1662A      4.577107  1663A      4.587863  1664A      4.589717  
    1665A      4.592101  1666A      4.592597  1667A      4.599375  
    1668A      4.603439  1669A      4.604385  1670A      4.608985  
    1671A      4.613855  1672A      4.619055  1673A      4.626710  
    1674A      4.632782  1675A      4.634694  1676A      4.645219  
    1677A      4.656620  1678A      4.657572  1679A      4.664247  
    1680A      4.665409  1681A      4.670825  1682A      4.675057  
    1683A      4.680577  1684A      4.687654  1685A      4.692798  
    1686A      4.693465  1687A      4.696632  1688A      4.700149  
    1689A      4.709737  1690A      4.710816  1691A      4.719787  
    1692A      4.725499  1693A      4.727623  1694A      4.736428  
    1695A      4.741018  1696A      4.744688  1697A      4.749164  
    1698A      4.752550  1699A      4.753933  1700A      4.758486  
    1701A      4.765182  1702A      4.770596  1703A      4.774464  
    1704A      4.776811  1705A      4.778169  1706A      4.789319  
    1707A      4.795372  1708A      4.796784  1709A      4.799954  
    1710A      4.802255  1711A      4.810713  1712A      4.817106  
    1713A      4.819619  1714A      4.822564  1715A      4.822907  
    1716A      4.828481  1717A      4.830831  1718A      4.834349  
    1719A      4.836276  1720A      4.844325  1721A      4.856997  
    1722A      4.862073  1723A      4.865281  1724A      4.867180  
    1725A      4.871405  1726A      4.872709  1727A      4.876823  
    1728A      4.877583  1729A      4.887232  1730A      4.890358  
    1731A      4.894228  1732A      4.899115  1733A      4.900357  
    1734A      4.907790  1735A      4.910335  1736A      4.917760  
    1737A      4.926432  1738A      4.932044  1739A      4.933184  
    1740A      4.937932  1741A      4.945079  1742A      4.946695  
    1743A      4.947159  1744A      4.952445  1745A      4.958921  
    1746A      4.962861  1747A      4.968342  1748A      4.972919  
    1749A      4.975269  1750A      4.980119  1751A      4.982970  
    1752A      4.986299  1753A      4.993741  1754A      4.999780  
    1755A      5.004253  1756A      5.009454  1757A      5.011407  
    1758A      5.013513  1759A      5.021057  1760A      5.025143  
    1761A      5.029320  1762A      5.031877  1763A      5.033502  
    1764A      5.037520  1765A      5.040042  1766A      5.049606  
    1767A      5.056412  1768A      5.059211  1769A      5.063144  
    1770A      5.065654  1771A      5.066455  1772A      5.072994  
    1773A      5.079719  1774A      5.085152  1775A      5.090756  
    1776A      5.098256  1777A      5.103668  1778A      5.109205  
    1779A      5.112062  1780A      5.113302  1781A      5.120881  
    1782A      5.124328  1783A      5.131189  1784A      5.136557  
    1785A      5.144343  1786A      5.149578  1787A      5.149953  
    1788A      5.156823  1789A      5.160701  1790A      5.169804  
    1791A      5.171630  1792A      5.172064  1793A      5.176825  
    1794A      5.183099  1795A      5.194697  1796A      5.197341  
    1797A      5.207787  1798A      5.211274  1799A      5.214465  
    1800A      5.216865  1801A      5.219375  1802A      5.224022  
    1803A      5.225371  1804A      5.230245  1805A      5.233389  
    1806A      5.235184  1807A      5.241633  1808A      5.245914  
    1809A      5.256714  1810A      5.264997  1811A      5.272410  
    1812A      5.275771  1813A      5.283515  1814A      5.284879  
    1815A      5.286527  1816A      5.290293  1817A      5.294851  
    1818A      5.306796  1819A      5.310417  1820A      5.312404  
    1821A      5.321183  1822A      5.327620  1823A      5.330589  
    1824A      5.337475  1825A      5.339865  1826A      5.342581  
    1827A      5.347383  1828A      5.356924  1829A      5.358335  
    1830A      5.358968  1831A      5.367208  1832A      5.369409  
    1833A      5.374020  1834A      5.377003  1835A      5.381244  
    1836A      5.399050  1837A      5.401136  1838A      5.405384  
    1839A      5.411787  1840A      5.413464  1841A      5.423484  
    1842A      5.425446  1843A      5.429213  1844A      5.436941  
    1845A      5.447123  1846A      5.451414  1847A      5.453964  
    1848A      5.456647  1849A      5.463822  1850A      5.470949  
    1851A      5.476698  1852A      5.485671  1853A      5.487735  
    1854A      5.492431  1855A      5.492479  1856A      5.494822  
    1857A      5.502659  1858A      5.511528  1859A      5.530264  
    1860A      5.534937  1861A      5.537364  1862A      5.540717  
    1863A      5.548077  1864A      5.550259  1865A      5.552092  
    1866A      5.557612  1867A      5.565885  1868A      5.570923  
    1869A      5.578885  1870A      5.584754  1871A      5.586063  
    1872A      5.588427  1873A      5.591990  1874A      5.598758  
    1875A      5.610940  1876A      5.615446  1877A      5.620350  
    1878A      5.621668  1879A      5.624589  1880A      5.631372  
    1881A      5.636201  1882A      5.648688  1883A      5.653942  
    1884A      5.654542  1885A      5.658660  1886A      5.673875  
    1887A      5.680931  1888A      5.683109  1889A      5.692831  
    1890A      5.702128  1891A      5.714394  1892A      5.721861  
    1893A      5.724762  1894A      5.731222  1895A      5.734321  
    1896A      5.739926  1897A      5.756671  1898A      5.758518  
    1899A      5.770049  1900A      5.778950  1901A      5.781760  
    1902A      5.784512  1903A      5.784919  1904A      5.792048  
    1905A      5.814344  1906A      5.819442  1907A      5.821143  
    1908A      5.830176  1909A      5.838458  1910A      5.863481  
    1911A      5.873493  1912A      5.877470  1913A      5.891096  
    1914A      5.898621  1915A      5.907394  1916A      5.923569  
    1917A      5.927698  1918A      5.930095  1919A      5.936757  
    1920A      5.952384  1921A      5.969748  1922A      5.988642  
    1923A      6.009468  1924A      6.018300  1925A      6.025932  
    1926A      6.030451  1927A      6.043080  1928A      6.048903  
    1929A      6.053944  1930A      6.062093  1931A      6.067006  
    1932A      6.071960  1933A      6.088649  1934A      6.089130  
    1935A      6.093338  1936A      6.099175  1937A      6.111463  
    1938A      6.114540  1939A      6.133888  1940A      6.140134  
    1941A      6.150912  1942A      6.161300  1943A      6.165658  
    1944A      6.171583  1945A      6.182976  1946A      6.192206  
    1947A      6.202717  1948A      6.204662  1949A      6.223037  
    1950A      6.229181  1951A      6.234037  1952A      6.253205  
    1953A      6.263805  1954A      6.270367  1955A      6.273029  
    1956A      6.291390  1957A      6.292732  1958A      6.297568  
    1959A      6.312612  1960A      6.323406  1961A      6.325068  
    1962A      6.341752  1963A      6.345422  1964A      6.363267  
    1965A      6.369674  1966A      6.375038  1967A      6.375561  
    1968A      6.377043  1969A      6.384156  1970A      6.394938  
    1971A      6.408068  1972A      6.426904  1973A      6.442820  
    1974A      6.476028  1975A      6.476998  1976A      6.489641  
    1977A      6.512269  1978A      6.526804  1979A      6.544494  
    1980A      6.559085  1981A      6.562337  1982A      6.569559  
    1983A      6.581451  1984A      6.603551  1985A      6.615777  
    1986A      6.620366  1987A      6.626703  1988A      6.633733  
    1989A      6.649190  1990A      6.657426  1991A      6.667045  
    1992A      6.677908  1993A      6.700012  1994A      6.711794  
    1995A      6.713586  1996A      6.713764  1997A      6.721964  
    1998A      6.740385  1999A      6.749117  2000A      6.753567  
    2001A      6.769958  2002A      6.773233  2003A      6.783414  
    2004A      6.800501  2005A      6.802575  2006A      6.809256  
    2007A      6.831918  2008A      6.835605  2009A      6.839366  
    2010A      6.855201  2011A      6.863523  2012A      6.867419  
    2013A      6.873997  2014A      6.875193  2015A      6.878341  
    2016A      6.895385  2017A      6.915003  2018A      6.919471  
    2019A      6.928482  2020A      6.932079  2021A      6.957296  
    2022A      6.962164  2023A      6.970493  2024A      6.976732  
    2025A      6.981538  2026A      6.984194  2027A      6.994377  
    2028A      7.005221  2029A      7.006155  2030A      7.006173  
    2031A      7.012601  2032A      7.016342  2033A      7.021063  
    2034A      7.031348  2035A      7.033664  2036A      7.045943  
    2037A      7.048982  2038A      7.064451  2039A      7.078138  
    2040A      7.078799  2041A      7.083285  2042A      7.086609  
    2043A      7.090562  2044A      7.103486  2045A      7.115200  
    2046A      7.118671  2047A      7.138886  2048A      7.139632  
    2049A      7.155580  2050A      7.175324  2051A      7.179058  
    2052A      7.199273  2053A      7.208741  2054A      7.214064  
    2055A      7.220937  2056A      7.226114  2057A      7.236127  
    2058A      7.241913  2059A      7.243077  2060A      7.247852  
    2061A      7.267183  2062A      7.301881  2063A      7.307883  
    2064A      7.321006  2065A      7.328201  2066A      7.347104  
    2067A      7.349432  2068A      7.349557  2069A      7.361951  
    2070A      7.374703  2071A      7.381287  2072A      7.385844  
    2073A      7.393353  2074A      7.395350  2075A      7.427507  
    2076A      7.427688  2077A      7.432745  2078A      7.433238  
    2079A      7.443511  2080A      7.445482  2081A      7.471999  
    2082A      7.479696  2083A      7.484954  2084A      7.486390  
    2085A      7.494874  2086A      7.501412  2087A      7.519375  
    2088A      7.522362  2089A      7.537642  2090A      7.542151  
    2091A      7.550384  2092A      7.557806  2093A      7.561549  
    2094A      7.573176  2095A      7.587354  2096A      7.591959  
    2097A      7.596215  2098A      7.604700  2099A      7.612556  
    2100A      7.615441  2101A      7.618534  2102A      7.632052  
    2103A      7.642491  2104A      7.648057  2105A      7.667288  
    2106A      7.673537  2107A      7.685760  2108A      7.690049  
    2109A      7.703108  2110A      7.704280  2111A      7.723227  
    2112A      7.724929  2113A      7.730913  2114A      7.734010  
    2115A      7.752629  2116A      7.769131  2117A      7.774594  
    2118A      7.782528  2119A      7.791357  2120A      7.792803  
    2121A      7.801005  2122A      7.807073  2123A      7.807968  
    2124A      7.847587  2125A      7.871217  2126A      7.875931  
    2127A      7.883366  2128A      7.892510  2129A      7.897134  
    2130A      7.930669  2131A      7.946030  2132A      7.950257  
    2133A      7.953059  2134A      7.964889  2135A      7.978813  
    2136A      7.989549  2137A      7.998441  2138A      7.999182  
    2139A      8.009699  2140A      8.018482  2141A      8.034150  
    2142A      8.043383  2143A      8.051828  2144A      8.063907  
    2145A      8.082789  2146A      8.207060  2147A      8.246364  
    2148A      8.379219  2149A      8.412785  2150A      8.430322  
    2151A      8.733743  2152A      8.781561  2153A      8.792901  
    2154A     15.008600  2155A     15.061912  2156A     15.625238  
    2157A     15.677615  2158A     15.756520  2159A     15.992376  
    2160A     16.017997  2161A     16.100559  2162A     16.306834  
    2163A     16.820557  2164A     17.114622  2165A     17.151258  
    2166A     17.235291  2167A     17.259417  2168A     17.345733  
    2169A     17.503389  2170A     17.889271  2171A     18.404083  
    2172A     18.411565  2173A     18.593762  2174A     18.609070  
    2175A     18.635665  2176A     18.673092  2177A     18.783993  
    2178A     18.859831  2179A     19.778103  2180A     19.830802  
    2181A     19.941503  2182A     20.008148  2183A     20.218428  
    2184A     21.443183  2185A     21.926628  

    Final Occupation by Irrep:
              A 
    DOCC [   125 ]

  Energy converged.

  @DF-RHF Final Energy: -1720.15392791281852

   => Energetics <=

    Nuclear Repulsion Energy =           2982.7484935527136258
    One-Electron Energy =               -8294.1032709018963942
    Two-Electron Energy =                3591.2008494363644786
    Total Energy =                      -1720.1539279128182898



Properties will be evaluated at   0.000000,   0.000000,   0.000000 Bohr

Properties computed using the SCF density matrix

  Nuclear Dipole Moment: (a.u.)
     X:   -12.8500      Y:     5.9243      Z:     4.6194

  Electronic Dipole Moment: (a.u.)
     X:    12.8464      Y:    -6.0729      Z:    -2.6447

  Dipole Moment: (a.u.)
     X:    -0.0036      Y:    -0.1486      Z:     1.9746     Total:     1.9802

  Dipole Moment: (Debye)
     X:    -0.0092      Y:    -0.3778      Z:     5.0190     Total:     5.0332


*** tstop() called on hex15 at Sun Mar  4 22:35:46 2018
Module time:
	user time   =    5996.29 seconds =      99.94 minutes
	system time =    1016.56 seconds =      16.94 minutes
	total time  =       5744 seconds =      95.73 minutes
Total time:
	user time   =    5996.29 seconds =      99.94 minutes
	system time =    1016.56 seconds =      16.94 minutes
	total time  =       5744 seconds =      95.73 minutes

*** Psi4 exiting successfully. Buy a developer a beer!
