
    -----------------------------------------------------------------------
          Psi4: An Open-Source Ab Initio Electronic Structure Package
                               Psi4 1.2a1.dev875 

                         Git: Rev {symm_JK} 0ea9481 dirty


    R. M. Parrish, L. A. Burns, D. G. A. Smith, A. C. Simmonett,
    A. E. DePrince III, E. G. Hohenstein, U. Bozkaya, A. Yu. Sokolov,
    R. Di Remigio, R. M. Richard, J. F. Gonthier, A. M. James,
    H. R. McAlexander, A. Kumar, M. Saitow, X. Wang, B. P. Pritchard,
    P. Verma, H. F. Schaefer III, K. Patkowski, R. A. King, E. F. Valeev,
    F. A. Evangelista, J. M. Turney, T. D. Crawford, and C. D. Sherrill,
    J. Chem. Theory Comput. 13(7) pp 3185--3197 (2017).
    (doi: 10.1021/acs.jctc.7b00174)

    -----------------------------------------------------------------------


    Psi4 started on: Thursday, 01 March 2018 05:28PM

    Process ID:  29373
    PSIDATADIR: /theoryfs2/ds/schieber/Gits/mspsi4/objdir3/stage/usr/local/psi4/share/psi4
    Memory:     500.0 MiB
    Threads:    6
    
  ==> Input File <==

--------------------------------------------------------------------------
memory 60 Gb

molecule protein_39 {
0 1
 N   18.626  30.444   6.627
 C   17.853  29.516   5.837
 C   16.945  30.292   4.886
 O   15.843  30.678   5.237
 C   17.047  28.642   6.811
 C   16.316  27.513   6.146
 O   16.236  27.458   4.905
 O   15.762  26.696   6.882
 N   17.407  27.054  -1.437
 C   17.227  26.751  -0.026
 C   18.555  26.446   0.653
 O   19.003  25.309   0.692
 C   16.258  25.572   0.084
 C   15.759  25.336   1.493
 O   16.399  25.780   2.453
 O   14.731  24.675   1.645
 N   19.106  26.199   3.688
 C   18.957  25.372   4.876
 C   18.845  23.903   4.520
 O   18.660  23.054   5.417
 H   18.180  30.990   7.295
 H   18.510  28.835   5.249
 H   16.336  29.276   7.377
 H   17.778  28.186   7.516
 H   15.845  26.702   7.843
 H   17.860  26.421  -2.023
 H   16.724  27.595   0.500
 H   16.724  24.663  -0.337
 H   15.363  25.845  -0.519
 H   16.737  25.171   3.109
 H   18.314  26.771   3.377
 H   18.015  25.631   5.391
 H   19.792  25.567   5.577
 H   19.646  30.419   6.619
 H   17.295  30.415   3.850
 H   16.947  27.858  -1.864
 H   19.060  27.284   1.155
 H   20.034  26.347   3.290
 H   18.824  23.654   3.449
}

set {
basis aug-cc-pvdz
scf_type df
guess sad
DF_SCF_TYPE DFJK
}

energy('HF')
--------------------------------------------------------------------------

  Memory set to  55.879 GiB by Python driver.

*** tstart() called on hex15
*** at Thu Mar  1 17:28:40 2018

   => Loading Basis Set <=

    Name: AUG-CC-PVDZ
    Role: ORBITAL
    Keyword: BASIS
    atoms 1, 9, 17                      entry N          line   214 file /theoryfs2/ds/schieber/Gits/mspsi4/objdir3/stage/usr/local/psi4/share/psi4/basis/aug-cc-pvdz.gbs 
    atoms 2-3, 5-6, 10-11, 13-14, 18-19 entry C          line   178 file /theoryfs2/ds/schieber/Gits/mspsi4/objdir3/stage/usr/local/psi4/share/psi4/basis/aug-cc-pvdz.gbs 
    atoms 4, 7-8, 12, 15-16, 20         entry O          line   250 file /theoryfs2/ds/schieber/Gits/mspsi4/objdir3/stage/usr/local/psi4/share/psi4/basis/aug-cc-pvdz.gbs 
    atoms 21-39                         entry H          line    36 file /theoryfs2/ds/schieber/Gits/mspsi4/objdir3/stage/usr/local/psi4/share/psi4/basis/aug-cc-pvdz.gbs 


         ---------------------------------------------------------
                                   SCF
            by Justin Turney, Rob Parrish, Andy Simmonett
                             and Daniel Smith
                              RHF Reference
                        6 Threads,  57220 MiB Core
         ---------------------------------------------------------

  ==> Geometry <==

    Molecular point group: c1
    Full point group: C1

    Geometry (in Angstrom), charge = 0, multiplicity = 1:

       Center              X                  Y                   Z               Mass       
    ------------   -----------------  -----------------  -----------------  -----------------
           N          1.351848201903     3.618071616974     3.042782948432    14.003074004780
           C          0.578848201903     2.690071616974     2.252782948432    12.000000000000
           C         -0.329151798097     3.466071616974     1.301782948432    12.000000000000
           O         -1.431151798097     3.852071616974     1.652782948432    15.994914619560
           C         -0.227151798097     1.816071616974     3.226782948432    12.000000000000
           C         -0.958151798097     0.687071616974     2.561782948432    12.000000000000
           O         -1.038151798097     0.632071616974     1.320782948432    15.994914619560
           O         -1.512151798097    -0.129928383026     3.297782948432    15.994914619560
           N          0.132848201903     0.228071616974    -5.021217051568    14.003074004780
           C         -0.047151798097    -0.074928383026    -3.610217051568    12.000000000000
           C          1.280848201903    -0.379928383026    -2.931217051568    12.000000000000
           O          1.728848201903    -1.516928383026    -2.892217051568    15.994914619560
           C         -1.016151798097    -1.253928383026    -3.500217051568    12.000000000000
           C         -1.515151798097    -1.489928383026    -2.091217051568    12.000000000000
           O         -0.875151798097    -1.045928383026    -1.131217051568    15.994914619560
           O         -2.543151798097    -2.150928383026    -1.939217051568    15.994914619560
           N          1.831848201903    -0.626928383026     0.103782948432    14.003074004780
           C          1.682848201903    -1.453928383026     1.291782948432    12.000000000000
           C          1.570848201903    -2.922928383026     0.935782948432    12.000000000000
           O          1.385848201903    -3.771928383026     1.832782948432    15.994914619560
           H          0.905848201903     4.164071616974     3.710782948432     1.007825032070
           H          1.235848201903     2.009071616974     1.664782948432     1.007825032070
           H         -0.938151798097     2.450071616974     3.792782948432     1.007825032070
           H          0.503848201903     1.360071616974     3.931782948432     1.007825032070
           H         -1.429151798097    -0.123928383026     4.258782948432     1.007825032070
           H          0.585848201903    -0.404928383026    -5.607217051568     1.007825032070
           H         -0.550151798097     0.769071616974    -3.084217051568     1.007825032070
           H         -0.550151798097    -2.162928383026    -3.921217051568     1.007825032070
           H         -1.911151798097    -0.980928383026    -4.103217051568     1.007825032070
           H         -0.537151798097    -1.654928383026    -0.475217051568     1.007825032070
           H          1.039848201903    -0.054928383026    -0.207217051568     1.007825032070
           H          0.740848201903    -1.194928383026     1.806782948432     1.007825032070
           H          2.517848201903    -1.258928383026     1.992782948432     1.007825032070
           H          2.371848201903     3.593071616974     3.034782948432     1.007825032070
           H          0.020848201903     3.589071616974     0.265782948432     1.007825032070
           H         -0.327151798097     1.032071616974    -5.448217051568     1.007825032070
           H          1.785848201903     0.458071616974    -2.429217051568     1.007825032070
           H          2.759848201903    -0.478928383026    -0.294217051568     1.007825032070
           H          1.549848201903    -3.171928383026    -0.135217051568     1.007825032070

  Running in c1 symmetry.

  Rotational constants: A =      0.01135  B =      0.00596  C =      0.00509 [cm^-1]
  Rotational constants: A =    340.34658  B =    178.57705  C =    152.51078 [MHz]
  Nuclear repulsion = 1638.269612368452044

  Charge       = 0
  Multiplicity = 1
  Electrons    = 156
  Nalpha       = 78
  Nbeta        = 78

  ==> Algorithm <==

  SCF Algorithm Type is DF.
  DIIS enabled.
  MOM disabled.
  Fractional occupation disabled.
  Guess Type is SAD.
  Energy threshold   = 1.00e-06
  Density threshold  = 1.00e-06
  Integral threshold = 0.00e+00

  ==> Primary Basis <==

  Basis Set: AUG-CC-PVDZ
    Blend: AUG-CC-PVDZ
    Number of shells: 275
    Number of basis function: 631
    Number of Cartesian functions: 671
    Spherical Harmonics?: true
    Max angular momentum: 2

   => Loading Basis Set <=

    Name: (AUG-CC-PVDZ AUX)
    Role: JKFIT
    Keyword: DF_BASIS_SCF
    atoms 1, 9, 17                      entry N          line   212 file /theoryfs2/ds/schieber/Gits/mspsi4/objdir3/stage/usr/local/psi4/share/psi4/basis/aug-cc-pvdz-jkfit.gbs 
    atoms 2-3, 5-6, 10-11, 13-14, 18-19 entry C          line   154 file /theoryfs2/ds/schieber/Gits/mspsi4/objdir3/stage/usr/local/psi4/share/psi4/basis/aug-cc-pvdz-jkfit.gbs 
    atoms 4, 7-8, 12, 15-16, 20         entry O          line   270 file /theoryfs2/ds/schieber/Gits/mspsi4/objdir3/stage/usr/local/psi4/share/psi4/basis/aug-cc-pvdz-jkfit.gbs 
    atoms 21-39                         entry H          line    70 file /theoryfs2/ds/schieber/Gits/mspsi4/objdir3/stage/usr/local/psi4/share/psi4/basis/aug-cc-pvdz-jkfit.gbs 

  ==> Pre-Iterations <==

   -------------------------------------------------------
    Irrep   Nso     Nmo     Nalpha   Nbeta   Ndocc  Nsocc
   -------------------------------------------------------
     A        631     631       0       0       0       0
   -------------------------------------------------------
    Total     631     631      78      78      78       0
   -------------------------------------------------------

  ==> Integral Setup <==

  ==> DFJK: Density-Fitted J/K Matrices <==

    J tasked:                  Yes
    K tasked:                  Yes
    wK tasked:                  No
    OpenMP threads:              6
    Integrals threads:           6
    Memory (MB):             42915
    Algorithm:                Core
    Integral Cache:           NONE
    Schwarz Cutoff:          1E-12
    Fitting Condition:       1E-12

   => Auxiliary Basis Set <=

  Basis Set: (AUG-CC-PVDZ AUX)
    Blend: AUG-CC-PVDZ-JKFIT
    Number of shells: 788
    Number of basis function: 2328
    Number of Cartesian functions: 2685
    Spherical Harmonics?: true
    Max angular momentum: 3

  Minimum eigenvalue in the overlap matrix is 6.6554307890E-06.
  Using Symmetric Orthogonalization.

  SCF Guess: Superposition of Atomic Densities via on-the-fly atomic UHF.

  ==> Iterations <==

                           Total Energy        Delta E     RMS |[F,P]|

   @DF-RHF iter   0: -1084.02781840769921   -1.08403e+03   3.25264e-02 
   @DF-RHF iter   1: -1076.45809173594398    7.56973e+00   4.34383e-03 
   @DF-RHF iter   2: -1076.93048322692221   -4.72391e-01   2.95303e-03 DIIS
   @DF-RHF iter   3: -1077.15708061768532   -2.26597e-01   6.35540e-04 DIIS
   @DF-RHF iter   4: -1077.17923736545504   -2.21567e-02   2.30614e-04 DIIS
   @DF-RHF iter   5: -1077.18278143076577   -3.54407e-03   9.08226e-05 DIIS
   @DF-RHF iter   6: -1077.18384359135871   -1.06216e-03   4.38831e-05 DIIS
   @DF-RHF iter   7: -1077.18414060333521   -2.97012e-04   2.03798e-05 DIIS
   @DF-RHF iter   8: -1077.18420376115409   -6.31578e-05   9.73706e-06 DIIS
   @DF-RHF iter   9: -1077.18421773360183   -1.39724e-05   4.29090e-06 DIIS
   @DF-RHF iter  10: -1077.18422087897511   -3.14537e-06   1.88921e-06 DIIS
   @DF-RHF iter  11: -1077.18422152023686   -6.41262e-07   6.85017e-07 DIIS

  ==> Post-Iterations <==

    Orbital Energies (a.u.)
    -----------------------

    Doubly Occupied:                                                      

       1A    -20.657460     2A    -20.613956     3A    -20.581979  
       4A    -20.575583     5A    -20.573238     6A    -20.555189  
       7A    -20.529473     8A    -15.571424     9A    -15.563774  
      10A    -15.560888    11A    -11.409633    12A    -11.377800  
      13A    -11.354726    14A    -11.349382    15A    -11.346219  
      16A    -11.304882    17A    -11.297486    18A    -11.290807  
      19A    -11.273328    20A    -11.245772    21A     -1.535400  
      22A     -1.505249    23A     -1.404135    24A     -1.400148  
      25A     -1.375974    26A     -1.365400    27A     -1.339237  
      28A     -1.219919    29A     -1.207001    30A     -1.190899  
      31A     -1.060450    32A     -1.046948    33A     -0.969378  
      34A     -0.954847    35A     -0.940604    36A     -0.911855  
      37A     -0.878881    38A     -0.812947    39A     -0.807113  
      40A     -0.798505    41A     -0.751589    42A     -0.734497  
      43A     -0.722152    44A     -0.709286    45A     -0.698336  
      46A     -0.695713    47A     -0.691654    48A     -0.688928  
      49A     -0.669448    50A     -0.664845    51A     -0.662668  
      52A     -0.656192    53A     -0.647479    54A     -0.634415  
      55A     -0.633195    56A     -0.631916    57A     -0.624461  
      58A     -0.593462    59A     -0.580790    60A     -0.575901  
      61A     -0.565760    62A     -0.560260    63A     -0.534241  
      64A     -0.531478    65A     -0.522294    66A     -0.518401  
      67A     -0.507431    68A     -0.491361    69A     -0.476779  
      70A     -0.464481    71A     -0.457435    72A     -0.449122  
      73A     -0.446549    74A     -0.444821    75A     -0.435829  
      76A     -0.388150    77A     -0.383590    78A     -0.378096  

    Virtual:                                                              

      79A      0.015388    80A      0.022660    81A      0.029992  
      82A      0.037136    83A      0.042041    84A      0.047521  
      85A      0.055170    86A      0.057114    87A      0.059371  
      88A      0.067139    89A      0.068129    90A      0.073346  
      91A      0.078904    92A      0.081511    93A      0.085672  
      94A      0.090098    95A      0.092227    96A      0.097667  
      97A      0.101425    98A      0.106930    99A      0.109544  
     100A      0.114447   101A      0.117070   102A      0.118528  
     103A      0.125858   104A      0.127964   105A      0.129287  
     106A      0.138638   107A      0.141996   108A      0.143847  
     109A      0.147810   110A      0.149820   111A      0.152150  
     112A      0.155689   113A      0.157051   114A      0.160644  
     115A      0.162569   116A      0.163426   117A      0.167837  
     118A      0.169171   119A      0.170275   120A      0.174205  
     121A      0.179244   122A      0.181349   123A      0.182027  
     124A      0.187207   125A      0.190181   126A      0.192248  
     127A      0.197865   128A      0.199770   129A      0.203238  
     130A      0.206804   131A      0.210119   132A      0.212497  
     133A      0.216118   134A      0.222684   135A      0.227553  
     136A      0.228415   137A      0.230797   138A      0.232816  
     139A      0.238136   140A      0.240177   141A      0.244839  
     142A      0.250527   143A      0.254547   144A      0.261333  
     145A      0.262654   146A      0.267494   147A      0.272114  
     148A      0.281271   149A      0.283360   150A      0.286898  
     151A      0.288644   152A      0.291078   153A      0.295906  
     154A      0.300609   155A      0.305398   156A      0.307222  
     157A      0.311660   158A      0.318090   159A      0.320905  
     160A      0.325387   161A      0.328038   162A      0.336995  
     163A      0.338528   164A      0.340584   165A      0.346105  
     166A      0.352187   167A      0.353472   168A      0.357963  
     169A      0.359162   170A      0.363820   171A      0.364514  
     172A      0.367932   173A      0.371948   174A      0.375445  
     175A      0.377497   176A      0.378591   177A      0.381452  
     178A      0.383137   179A      0.388119   180A      0.393387  
     181A      0.395013   182A      0.398302   183A      0.400720  
     184A      0.405053   185A      0.408731   186A      0.410849  
     187A      0.413775   188A      0.419137   189A      0.420933  
     190A      0.424343   191A      0.427756   192A      0.432606  
     193A      0.436097   194A      0.437653   195A      0.444101  
     196A      0.446065   197A      0.449155   198A      0.455302  
     199A      0.459227   200A      0.462446   201A      0.465518  
     202A      0.470654   203A      0.475458   204A      0.478064  
     205A      0.481707   206A      0.484812   207A      0.486992  
     208A      0.490530   209A      0.493302   210A      0.500231  
     211A      0.502413   212A      0.505363   213A      0.509322  
     214A      0.512466   215A      0.515769   216A      0.519910  
     217A      0.522683   218A      0.526768   219A      0.531328  
     220A      0.534053   221A      0.536842   222A      0.539161  
     223A      0.541789   224A      0.546237   225A      0.555100  
     226A      0.557643   227A      0.560289   228A      0.568330  
     229A      0.571991   230A      0.574235   231A      0.582327  
     232A      0.585709   233A      0.588313   234A      0.595194  
     235A      0.596836   236A      0.599421   237A      0.603493  
     238A      0.608129   239A      0.611570   240A      0.616833  
     241A      0.620544   242A      0.624158   243A      0.631110  
     244A      0.636241   245A      0.641588   246A      0.643327  
     247A      0.650612   248A      0.654835   249A      0.656240  
     250A      0.659192   251A      0.663792   252A      0.665639  
     253A      0.670874   254A      0.672416   255A      0.679461  
     256A      0.683603   257A      0.686279   258A      0.695491  
     259A      0.699460   260A      0.700922   261A      0.704936  
     262A      0.711597   263A      0.712607   264A      0.719161  
     265A      0.724058   266A      0.726707   267A      0.732421  
     268A      0.741992   269A      0.744244   270A      0.747411  
     271A      0.752309   272A      0.756100   273A      0.759274  
     274A      0.765038   275A      0.767682   276A      0.770864  
     277A      0.781714   278A      0.782983   279A      0.785724  
     280A      0.790546   281A      0.794159   282A      0.795326  
     283A      0.799343   284A      0.803018   285A      0.807654  
     286A      0.813155   287A      0.814250   288A      0.819460  
     289A      0.821545   290A      0.827748   291A      0.833454  
     292A      0.839440   293A      0.841819   294A      0.846486  
     295A      0.852649   296A      0.853637   297A      0.866882  
     298A      0.868891   299A      0.871532   300A      0.882800  
     301A      0.883920   302A      0.889839   303A      0.898236  
     304A      0.898723   305A      0.904963   306A      0.912899  
     307A      0.916501   308A      0.923030   309A      0.923826  
     310A      0.934149   311A      0.937704   312A      0.939042  
     313A      0.941088   314A      0.957014   315A      0.962535  
     316A      0.963487   317A      0.967762   318A      0.970519  
     319A      0.971608   320A      0.980643   321A      0.986191  
     322A      0.992061   323A      0.999222   324A      0.999888  
     325A      1.004051   326A      1.014973   327A      1.025889  
     328A      1.029904   329A      1.034894   330A      1.040336  
     331A      1.045230   332A      1.052911   333A      1.061896  
     334A      1.065028   335A      1.072345   336A      1.077238  
     337A      1.086141   338A      1.091006   339A      1.095447  
     340A      1.100788   341A      1.105374   342A      1.114944  
     343A      1.121332   344A      1.126893   345A      1.132656  
     346A      1.139453   347A      1.145604   348A      1.147822  
     349A      1.155741   350A      1.162999   351A      1.173065  
     352A      1.183855   353A      1.198164   354A      1.201424  
     355A      1.202629   356A      1.213952   357A      1.221680  
     358A      1.223876   359A      1.237062   360A      1.248122  
     361A      1.251259   362A      1.263007   363A      1.274399  
     364A      1.282948   365A      1.286185   366A      1.294125  
     367A      1.300675   368A      1.306787   369A      1.307616  
     370A      1.315110   371A      1.322689   372A      1.329049  
     373A      1.329906   374A      1.344199   375A      1.348601  
     376A      1.359998   377A      1.364055   378A      1.370099  
     379A      1.377626   380A      1.381814   381A      1.400045  
     382A      1.406141   383A      1.423054   384A      1.428503  
     385A      1.439920   386A      1.441124   387A      1.444480  
     388A      1.451392   389A      1.463944   390A      1.477924  
     391A      1.482231   392A      1.492481   393A      1.496703  
     394A      1.504498   395A      1.513679   396A      1.516884  
     397A      1.520679   398A      1.525441   399A      1.534518  
     400A      1.541017   401A      1.552793   402A      1.565016  
     403A      1.567157   404A      1.577487   405A      1.581769  
     406A      1.600715   407A      1.606776   408A      1.610594  
     409A      1.618455   410A      1.635469   411A      1.642312  
     412A      1.653846   413A      1.661033   414A      1.679369  
     415A      1.686603   416A      1.691603   417A      1.697452  
     418A      1.708992   419A      1.720306   420A      1.734848  
     421A      1.736728   422A      1.757058   423A      1.764074  
     424A      1.772630   425A      1.780617   426A      1.784471  
     427A      1.788705   428A      1.794392   429A      1.815203  
     430A      1.821182   431A      1.828497   432A      1.833393  
     433A      1.853538   434A      1.864923   435A      1.867509  
     436A      1.872675   437A      1.880801   438A      1.883501  
     439A      1.897223   440A      1.899486   441A      1.913512  
     442A      1.916993   443A      1.935099   444A      1.936258  
     445A      1.943912   446A      1.956210   447A      1.957965  
     448A      1.967443   449A      1.974267   450A      1.982377  
     451A      1.992227   452A      2.001035   453A      2.020914  
     454A      2.025760   455A      2.027934   456A      2.032502  
     457A      2.041786   458A      2.051140   459A      2.062499  
     460A      2.066575   461A      2.074619   462A      2.076448  
     463A      2.086084   464A      2.095236   465A      2.099031  
     466A      2.104199   467A      2.114094   468A      2.120877  
     469A      2.125909   470A      2.133921   471A      2.141117  
     472A      2.145987   473A      2.151518   474A      2.167529  
     475A      2.173287   476A      2.185103   477A      2.195195  
     478A      2.197716   479A      2.203342   480A      2.216762  
     481A      2.222902   482A      2.225011   483A      2.230658  
     484A      2.231574   485A      2.256135   486A      2.260409  
     487A      2.269076   488A      2.278537   489A      2.285614  
     490A      2.300658   491A      2.306514   492A      2.317378  
     493A      2.323628   494A      2.330110   495A      2.338637  
     496A      2.343855   497A      2.350689   498A      2.354561  
     499A      2.362053   500A      2.364919   501A      2.371771  
     502A      2.379070   503A      2.386668   504A      2.398927  
     505A      2.410137   506A      2.415084   507A      2.431411  
     508A      2.435232   509A      2.441997   510A      2.445665  
     511A      2.455371   512A      2.461738   513A      2.474543  
     514A      2.484182   515A      2.494364   516A      2.495568  
     517A      2.511024   518A      2.514901   519A      2.526136  
     520A      2.527664   521A      2.541870   522A      2.543658  
     523A      2.548399   524A      2.559099   525A      2.581514  
     526A      2.587502   527A      2.603130   528A      2.615924  
     529A      2.621852   530A      2.632351   531A      2.633552  
     532A      2.646158   533A      2.655429   534A      2.675746  
     535A      2.685738   536A      2.691279   537A      2.702057  
     538A      2.720967   539A      2.728849   540A      2.735514  
     541A      2.748943   542A      2.755781   543A      2.762679  
     544A      2.764418   545A      2.791223   546A      2.804840  
     547A      2.811420   548A      2.823232   549A      2.842334  
     550A      2.855815   551A      2.871072   552A      2.877529  
     553A      2.880947   554A      2.896959   555A      2.902011  
     556A      2.909905   557A      2.920524   558A      2.930893  
     559A      2.939753   560A      2.961541   561A      2.991470  
     562A      3.002683   563A      3.015334   564A      3.017441  
     565A      3.029028   566A      3.041642   567A      3.066909  
     568A      3.070727   569A      3.098821   570A      3.109931  
     571A      3.120636   572A      3.160753   573A      3.171143  
     574A      3.178303   575A      3.205609   576A      3.259777  
     577A      3.266998   578A      3.296175   579A      3.357112  
     580A      3.405223   581A      3.417038   582A      3.430320  
     583A      3.448883   584A      3.463877   585A      3.464868  
     586A      3.537253   587A      3.572211   588A      3.590966  
     589A      3.627734   590A      3.640365   591A      3.653213  
     592A      3.688708   593A      3.730247   594A      3.736864  
     595A      3.744314   596A      3.751325   597A      3.761653  
     598A      3.772242   599A      3.785572   600A      3.808721  
     601A      3.813211   602A      3.818585   603A      3.821075  
     604A      3.831225   605A      3.840740   606A      3.852998  
     607A      3.865435   608A      3.882084   609A      3.888462  
     610A      3.926127   611A      3.935009   612A      3.940125  
     613A      3.950497   614A      3.960389   615A      3.970204  
     616A      3.971214   617A      3.987319   618A      4.006899  
     619A      4.023269   620A      4.060879   621A      4.080904  
     622A      4.086069   623A      4.120763   624A      4.126409  
     625A      4.167975   626A      4.180098   627A      4.188810  
     628A      4.276071   629A      4.345350   630A      4.398976  
     631A      4.459861  

    Final Occupation by Irrep:
              A 
    DOCC [    78 ]

  Energy converged.

  @DF-RHF Final Energy: -1077.18422152023686

   => Energetics <=

    Nuclear Repulsion Energy =           1638.2696123684520444
    One-Electron Energy =               -4733.7461621314123477
    Two-Electron Energy =                2018.2923282427236700
    Total Energy =                      -1077.1842215202368607



Properties will be evaluated at   0.000000,   0.000000,   0.000000 Bohr

Properties computed using the SCF density matrix

  Nuclear Dipole Moment: (a.u.)
     X:     9.1337      Y:     7.4118      Z:    -1.1525

  Electronic Dipole Moment: (a.u.)
     X:    -6.9430      Y:    -5.0802      Z:     2.0669

  Dipole Moment: (a.u.)
     X:     2.1907      Y:     2.3317      Z:     0.9144     Total:     3.3274

  Dipole Moment: (Debye)
     X:     5.5681      Y:     5.9265      Z:     2.3242     Total:     8.4575


*** tstop() called on hex15 at Thu Mar  1 17:30:52 2018
Module time:
	user time   =     381.21 seconds =       6.35 minutes
	system time =       3.05 seconds =       0.05 minutes
	total time  =        132 seconds =       2.20 minutes
Total time:
	user time   =     381.21 seconds =       6.35 minutes
	system time =       3.05 seconds =       0.05 minutes
	total time  =        132 seconds =       2.20 minutes

*** Psi4 exiting successfully. Buy a developer a beer!
