
    -----------------------------------------------------------------------
          Psi4: An Open-Source Ab Initio Electronic Structure Package
                               Psi4 1.2a1.dev875 

                         Git: Rev {symm_JK} 0ea9481 dirty


    R. M. Parrish, L. A. Burns, D. G. A. Smith, A. C. Simmonett,
    A. E. DePrince III, E. G. Hohenstein, U. Bozkaya, A. Yu. Sokolov,
    R. Di Remigio, R. M. Richard, J. F. Gonthier, A. M. James,
    H. R. McAlexander, A. Kumar, M. Saitow, X. Wang, B. P. Pritchard,
    P. Verma, H. F. Schaefer III, K. Patkowski, R. A. King, E. F. Valeev,
    F. A. Evangelista, J. M. Turney, T. D. Crawford, and C. D. Sherrill,
    J. Chem. Theory Comput. 13(7) pp 3185--3197 (2017).
    (doi: 10.1021/acs.jctc.7b00174)

    -----------------------------------------------------------------------


    Psi4 started on: Thursday, 01 March 2018 05:30PM

    Process ID:  29412
    PSIDATADIR: /theoryfs2/ds/schieber/Gits/mspsi4/objdir3/stage/usr/local/psi4/share/psi4
    Memory:     500.0 MiB
    Threads:    6
    
  ==> Input File <==

--------------------------------------------------------------------------
memory 60 Gb

molecule protein_54 {
0 1
 N   18.626  30.444   6.627
 C   17.853  29.516   5.837
 C   16.945  30.292   4.886
 O   15.843  30.678   5.237
 C   17.047  28.642   6.811
 C   16.316  27.513   6.146
 O   16.236  27.458   4.905
 O   15.762  26.696   6.882
 N   17.407  27.054  -1.437
 C   17.227  26.751  -0.026
 C   18.555  26.446   0.653
 O   19.003  25.309   0.692
 C   16.258  25.572   0.084
 C   15.759  25.336   1.493
 O   16.399  25.780   2.453
 O   14.731  24.675   1.645
 N   19.106  26.199   3.688
 C   18.957  25.372   4.876
 C   18.845  23.903   4.520
 O   18.660  23.054   5.417
 N   20.536  20.559   2.918
 C   21.779  19.912   2.496
 C   21.693  19.374   1.107
 O   22.642  19.502   0.361
 C   22.169  18.827   3.447
 C   22.272  19.337   4.844
 O   22.714  20.482   5.029
 O   21.836  18.647   5.778
 H   18.180  30.990   7.295
 H   18.510  28.835   5.249
 H   16.336  29.276   7.377
 H   17.778  28.186   7.516
 H   15.845  26.702   7.843
 H   17.860  26.421  -2.023
 H   16.724  27.595   0.500
 H   16.724  24.663  -0.337
 H   15.363  25.845  -0.519
 H   16.737  25.171   3.109
 H   18.314  26.771   3.377
 H   18.015  25.631   5.391
 H   19.792  25.567   5.577
 H   19.976  20.073   3.597
 H   22.602  20.664   2.537
 H   23.175  18.459   3.144
 H   21.465  17.966   3.392
 H   21.492  17.752   5.634
 H   19.646  30.419   6.619
 H   17.295  30.415   3.850
 H   16.947  27.858  -1.864
 H   19.060  27.284   1.155
 H   20.034  26.347   3.290
 H   18.824  23.654   3.449
 H   20.197  21.395   2.443
 H   20.727  18.956   0.786
}

set {
basis aug-cc-pvdz
scf_type df
guess sad
DF_SCF_TYPE DFJK
}

energy('HF')
--------------------------------------------------------------------------

  Memory set to  55.879 GiB by Python driver.

*** tstart() called on hex15
*** at Thu Mar  1 17:30:53 2018

   => Loading Basis Set <=

    Name: AUG-CC-PVDZ
    Role: ORBITAL
    Keyword: BASIS
    atoms 1, 9, 17, 21                                entry N          line   214 file /theoryfs2/ds/schieber/Gits/mspsi4/objdir3/stage/usr/local/psi4/share/psi4/basis/aug-cc-pvdz.gbs 
    atoms 2-3, 5-6, 10-11, 13-14, 18-19, 22-23, 25-26 entry C          line   178 file /theoryfs2/ds/schieber/Gits/mspsi4/objdir3/stage/usr/local/psi4/share/psi4/basis/aug-cc-pvdz.gbs 
    atoms 4, 7-8, 12, 15-16, 20, 24, 27-28            entry O          line   250 file /theoryfs2/ds/schieber/Gits/mspsi4/objdir3/stage/usr/local/psi4/share/psi4/basis/aug-cc-pvdz.gbs 
    atoms 29-54                                       entry H          line    36 file /theoryfs2/ds/schieber/Gits/mspsi4/objdir3/stage/usr/local/psi4/share/psi4/basis/aug-cc-pvdz.gbs 


         ---------------------------------------------------------
                                   SCF
            by Justin Turney, Rob Parrish, Andy Simmonett
                             and Daniel Smith
                              RHF Reference
                        6 Threads,  57220 MiB Core
         ---------------------------------------------------------

  ==> Geometry <==

    Molecular point group: c1
    Full point group: C1

    Geometry (in Angstrom), charge = 0, multiplicity = 1:

       Center              X                  Y                   Z               Mass       
    ------------   -----------------  -----------------  -----------------  -----------------
           N          0.020074539305     5.686424476598     3.129539240050    14.003074004780
           C         -0.752925460695     4.758424476598     2.339539240050    12.000000000000
           C         -1.660925460695     5.534424476598     1.388539240050    12.000000000000
           O         -2.762925460695     5.920424476598     1.739539240050    15.994914619560
           C         -1.558925460695     3.884424476598     3.313539240050    12.000000000000
           C         -2.289925460695     2.755424476598     2.648539240050    12.000000000000
           O         -2.369925460695     2.700424476598     1.407539240050    15.994914619560
           O         -2.843925460695     1.938424476598     3.384539240050    15.994914619560
           N         -1.198925460695     2.296424476598    -4.934460759950    14.003074004780
           C         -1.378925460695     1.993424476598    -3.523460759950    12.000000000000
           C         -0.050925460695     1.688424476598    -2.844460759950    12.000000000000
           O          0.397074539305     0.551424476598    -2.805460759950    15.994914619560
           C         -2.347925460695     0.814424476598    -3.413460759950    12.000000000000
           C         -2.846925460695     0.578424476598    -2.004460759950    12.000000000000
           O         -2.206925460695     1.022424476598    -1.044460759950    15.994914619560
           O         -3.874925460695    -0.082575523402    -1.852460759950    15.994914619560
           N          0.500074539305     1.441424476598     0.190539240050    14.003074004780
           C          0.351074539305     0.614424476598     1.378539240050    12.000000000000
           C          0.239074539305    -0.854575523402     1.022539240050    12.000000000000
           O          0.054074539305    -1.703575523402     1.919539240050    15.994914619560
           N          1.930074539305    -4.198575523402    -0.579460759950    14.003074004780
           C          3.173074539305    -4.845575523402    -1.001460759950    12.000000000000
           C          3.087074539305    -5.383575523402    -2.390460759950    12.000000000000
           O          4.036074539305    -5.255575523402    -3.136460759950    15.994914619560
           C          3.563074539305    -5.930575523402    -0.050460759950    12.000000000000
           C          3.666074539305    -5.420575523402     1.346539240050    12.000000000000
           O          4.108074539305    -4.275575523402     1.531539240050    15.994914619560
           O          3.230074539305    -6.110575523402     2.280539240050    15.994914619560
           H         -0.425925460695     6.232424476598     3.797539240050     1.007825032070
           H         -0.095925460695     4.077424476598     1.751539240050     1.007825032070
           H         -2.269925460695     4.518424476598     3.879539240050     1.007825032070
           H         -0.827925460695     3.428424476598     4.018539240050     1.007825032070
           H         -2.760925460695     1.944424476598     4.345539240050     1.007825032070
           H         -0.745925460695     1.663424476598    -5.520460759950     1.007825032070
           H         -1.881925460695     2.837424476598    -2.997460759950     1.007825032070
           H         -1.881925460695    -0.094575523402    -3.834460759950     1.007825032070
           H         -3.242925460695     1.087424476598    -4.016460759950     1.007825032070
           H         -1.868925460695     0.413424476598    -0.388460759950     1.007825032070
           H         -0.291925460695     2.013424476598    -0.120460759950     1.007825032070
           H         -0.590925460695     0.873424476598     1.893539240050     1.007825032070
           H          1.186074539305     0.809424476598     2.079539240050     1.007825032070
           H          1.370074539305    -4.684575523402     0.099539240050     1.007825032070
           H          3.996074539305    -4.093575523402    -0.960460759950     1.007825032070
           H          4.569074539305    -6.298575523402    -0.353460759950     1.007825032070
           H          2.859074539305    -6.791575523402    -0.105460759950     1.007825032070
           H          2.886074539305    -7.005575523402     2.136539240050     1.007825032070
           H          1.040074539305     5.661424476598     3.121539240050     1.007825032070
           H         -1.310925460695     5.657424476598     0.352539240050     1.007825032070
           H         -1.658925460695     3.100424476598    -5.361460759950     1.007825032070
           H          0.454074539305     2.526424476598    -2.342460759950     1.007825032070
           H          1.428074539305     1.589424476598    -0.207460759950     1.007825032070
           H          0.218074539305    -1.103575523402    -0.048460759950     1.007825032070
           H          1.591074539305    -3.362575523402    -1.054460759950     1.007825032070
           H          2.121074539305    -5.801575523402    -2.711460759950     1.007825032070

  Running in c1 symmetry.

  Rotational constants: A =      0.00569  B =      0.00205  C =      0.00170 [cm^-1]
  Rotational constants: A =    170.63320  B =     61.47394  C =     50.92296 [MHz]
  Nuclear repulsion = 2605.305023422821705

  Charge       = 0
  Multiplicity = 1
  Electrons    = 218
  Nalpha       = 109
  Nbeta        = 109

  ==> Algorithm <==

  SCF Algorithm Type is DF.
  DIIS enabled.
  MOM disabled.
  Fractional occupation disabled.
  Guess Type is SAD.
  Energy threshold   = 1.00e-06
  Density threshold  = 1.00e-06
  Integral threshold = 0.00e+00

  ==> Primary Basis <==

  Basis Set: AUG-CC-PVDZ
    Blend: AUG-CC-PVDZ
    Number of shells: 382
    Number of basis function: 878
    Number of Cartesian functions: 934
    Spherical Harmonics?: true
    Max angular momentum: 2

   => Loading Basis Set <=

    Name: (AUG-CC-PVDZ AUX)
    Role: JKFIT
    Keyword: DF_BASIS_SCF
    atoms 1, 9, 17, 21                                entry N          line   212 file /theoryfs2/ds/schieber/Gits/mspsi4/objdir3/stage/usr/local/psi4/share/psi4/basis/aug-cc-pvdz-jkfit.gbs 
    atoms 2-3, 5-6, 10-11, 13-14, 18-19, 22-23, 25-26 entry C          line   154 file /theoryfs2/ds/schieber/Gits/mspsi4/objdir3/stage/usr/local/psi4/share/psi4/basis/aug-cc-pvdz-jkfit.gbs 
    atoms 4, 7-8, 12, 15-16, 20, 24, 27-28            entry O          line   270 file /theoryfs2/ds/schieber/Gits/mspsi4/objdir3/stage/usr/local/psi4/share/psi4/basis/aug-cc-pvdz-jkfit.gbs 
    atoms 29-54                                       entry H          line    70 file /theoryfs2/ds/schieber/Gits/mspsi4/objdir3/stage/usr/local/psi4/share/psi4/basis/aug-cc-pvdz-jkfit.gbs 

  ==> Pre-Iterations <==

   -------------------------------------------------------
    Irrep   Nso     Nmo     Nalpha   Nbeta   Ndocc  Nsocc
   -------------------------------------------------------
     A        878     878       0       0       0       0
   -------------------------------------------------------
    Total     878     878     109     109     109       0
   -------------------------------------------------------

  ==> Integral Setup <==

  ==> DFJK: Density-Fitted J/K Matrices <==

    J tasked:                  Yes
    K tasked:                  Yes
    wK tasked:                  No
    OpenMP threads:              6
    Integrals threads:           6
    Memory (MB):             42915
    Algorithm:                Core
    Integral Cache:           NONE
    Schwarz Cutoff:          1E-12
    Fitting Condition:       1E-12

   => Auxiliary Basis Set <=

  Basis Set: (AUG-CC-PVDZ AUX)
    Blend: AUG-CC-PVDZ-JKFIT
    Number of shells: 1096
    Number of basis function: 3240
    Number of Cartesian functions: 3738
    Spherical Harmonics?: true
    Max angular momentum: 3

  Minimum eigenvalue in the overlap matrix is 6.1873648284E-06.
  Using Symmetric Orthogonalization.

  SCF Guess: Superposition of Atomic Densities via on-the-fly atomic UHF.

  ==> Iterations <==

                           Total Energy        Delta E     RMS |[F,P]|

   @DF-RHF iter   0: -1521.71481470542085   -1.52171e+03   2.77139e-02 
   @DF-RHF iter   1: -1510.91714200047068    1.07977e+01   3.32420e-03 
   @DF-RHF iter   2: -1511.54205075672758   -6.24909e-01   2.06794e-03 DIIS
   @DF-RHF iter   3: -1511.76655205862494   -2.24501e-01   5.89274e-04 DIIS
   @DF-RHF iter   4: -1511.79848621876431   -3.19342e-02   1.67773e-04 DIIS
   @DF-RHF iter   5: -1511.80188010214897   -3.39388e-03   6.63546e-05 DIIS
   @DF-RHF iter   6: -1511.80257918075563   -6.99079e-04   2.44824e-05 DIIS
   @DF-RHF iter   7: -1511.80272344171931   -1.44261e-04   1.21520e-05 DIIS
   @DF-RHF iter   8: -1511.80275424473120   -3.08030e-05   5.80156e-06 DIIS
   @DF-RHF iter   9: -1511.80276416971674   -9.92499e-06   2.61735e-06 DIIS
   @DF-RHF iter  10: -1511.80276686570551   -2.69599e-06   1.15247e-06 DIIS
   @DF-RHF iter  11: -1511.80276738943166   -5.23726e-07   4.32195e-07 DIIS

  ==> Post-Iterations <==

    Orbital Energies (a.u.)
    -----------------------

    Doubly Occupied:                                                      

       1A    -20.656851     2A    -20.647119     3A    -20.614958  
       4A    -20.582484     5A    -20.574601     6A    -20.572221  
       7A    -20.571322     8A    -20.554466     9A    -20.533963  
      10A    -20.530946    11A    -15.569935    12A    -15.563955  
      13A    -15.559307    14A    -15.553804    15A    -11.408893  
      16A    -11.394213    17A    -11.379158    18A    -11.355263  
      19A    -11.348367    20A    -11.345860    21A    -11.336632  
      22A    -11.303601    23A    -11.298006    24A    -11.288878  
      25A    -11.282501    26A    -11.272657    27A    -11.272193  
      28A    -11.246882    29A     -1.534763    30A     -1.518695  
      31A     -1.506346    32A     -1.404742    33A     -1.399191  
      34A     -1.398832    35A     -1.374726    36A     -1.364705  
      37A     -1.346408    38A     -1.340677    39A     -1.218508  
      40A     -1.207326    41A     -1.197316    42A     -1.189249  
      43A     -1.059304    44A     -1.058659    45A     -1.047760  
      46A     -0.967846    47A     -0.953809    48A     -0.943283  
      49A     -0.941255    50A     -0.911110    51A     -0.894455  
      52A     -0.879798    53A     -0.812512    54A     -0.806053  
      55A     -0.800722    56A     -0.798998    57A     -0.750382  
      58A     -0.735675    59A     -0.734938    60A     -0.721148  
      61A     -0.713832    62A     -0.708541    63A     -0.698626  
      64A     -0.695996    65A     -0.691173    66A     -0.688189  
      67A     -0.681760    68A     -0.669094    69A     -0.667822  
      70A     -0.665183    71A     -0.661614    72A     -0.659336  
      73A     -0.657102    74A     -0.646456    75A     -0.636823  
      76A     -0.633479    77A     -0.632657    78A     -0.631654  
      79A     -0.625068    80A     -0.611626    81A     -0.592228  
      82A     -0.578985    83A     -0.574814    84A     -0.568575  
      85A     -0.564985    86A     -0.561026    87A     -0.551311  
      88A     -0.534322    89A     -0.533123    90A     -0.532200  
      91A     -0.523070    92A     -0.517434    93A     -0.508373  
      94A     -0.502249    95A     -0.489811    96A     -0.475980  
      97A     -0.463725    98A     -0.460144    99A     -0.458472  
     100A     -0.449933   101A     -0.445667   102A     -0.444005  
     103A     -0.441386   104A     -0.436970   105A     -0.432970  
     106A     -0.386834   107A     -0.382300   108A     -0.378501  
     109A     -0.376089  

    Virtual:                                                              

     110A      0.017617   111A      0.021657   112A      0.024047  
     113A      0.030862   114A      0.039570   115A      0.041110  
     116A      0.045649   117A      0.049191   118A      0.053093  
     119A      0.056223   120A      0.058574   121A      0.059523  
     122A      0.067018   123A      0.069702   124A      0.070483  
     125A      0.073034   126A      0.076851   127A      0.080510  
     128A      0.083480   129A      0.089951   130A      0.092023  
     131A      0.093007   132A      0.095069   133A      0.099980  
     134A      0.103567   135A      0.104548   136A      0.106700  
     137A      0.110133   138A      0.113652   139A      0.116260  
     140A      0.118907   141A      0.120106   142A      0.122042  
     143A      0.124343   144A      0.128712   145A      0.129355  
     146A      0.134949   147A      0.138951   148A      0.140117  
     149A      0.144114   150A      0.145290   151A      0.146350  
     152A      0.148296   153A      0.150180   154A      0.152418  
     155A      0.154700   156A      0.155287   157A      0.158018  
     158A      0.159961   159A      0.160493   160A      0.164788  
     161A      0.166259   162A      0.167528   163A      0.169550  
     164A      0.170630   165A      0.172783   166A      0.174773  
     167A      0.177919   168A      0.180242   169A      0.181555  
     170A      0.184636   171A      0.187737   172A      0.189361  
     173A      0.192837   174A      0.194112   175A      0.195378  
     176A      0.196201   177A      0.198134   178A      0.204320  
     179A      0.205417   180A      0.207414   181A      0.210228  
     182A      0.212445   183A      0.214910   184A      0.216959  
     185A      0.221081   186A      0.224680   187A      0.227993  
     188A      0.228519   189A      0.229552   190A      0.232628  
     191A      0.233803   192A      0.238918   193A      0.239834  
     194A      0.242540   195A      0.244469   196A      0.251627  
     197A      0.254063   198A      0.260569   199A      0.262341  
     200A      0.263545   201A      0.265664   202A      0.268782  
     203A      0.273043   204A      0.276378   205A      0.279638  
     206A      0.283277   207A      0.286088   208A      0.288980  
     209A      0.290077   210A      0.292672   211A      0.294868  
     212A      0.296829   213A      0.299902   214A      0.301064  
     215A      0.307929   216A      0.309408   217A      0.313441  
     218A      0.316302   219A      0.318467   220A      0.320770  
     221A      0.322415   222A      0.324421   223A      0.328759  
     224A      0.331466   225A      0.333119   226A      0.337361  
     227A      0.340655   228A      0.342729   229A      0.345431  
     230A      0.348388   231A      0.352678   232A      0.354582  
     233A      0.355946   234A      0.358779   235A      0.361798  
     236A      0.362008   237A      0.362680   238A      0.366276  
     239A      0.366688   240A      0.371297   241A      0.373521  
     242A      0.375097   243A      0.376147   244A      0.378279  
     245A      0.381586   246A      0.382329   247A      0.387125  
     248A      0.388239   249A      0.390941   250A      0.391597  
     251A      0.395669   252A      0.396804   253A      0.399662  
     254A      0.402316   255A      0.404007   256A      0.406637  
     257A      0.409967   258A      0.411346   259A      0.413704  
     260A      0.416122   261A      0.418102   262A      0.420516  
     263A      0.424132   264A      0.425932   265A      0.428028  
     266A      0.431622   267A      0.433390   268A      0.436072  
     269A      0.437475   270A      0.439321   271A      0.443244  
     272A      0.446951   273A      0.449237   274A      0.450776  
     275A      0.455400   276A      0.457141   277A      0.459676  
     278A      0.462878   279A      0.465194   280A      0.467722  
     281A      0.471147   282A      0.473207   283A      0.476155  
     284A      0.481020   285A      0.483061   286A      0.483795  
     287A      0.487585   288A      0.490363   289A      0.492919  
     290A      0.496068   291A      0.498558   292A      0.501003  
     293A      0.502688   294A      0.504863   295A      0.508158  
     296A      0.510708   297A      0.511049   298A      0.514702  
     299A      0.517424   300A      0.518266   301A      0.521227  
     302A      0.525843   303A      0.529231   304A      0.532849  
     305A      0.535907   306A      0.536542   307A      0.540242  
     308A      0.541138   309A      0.543464   310A      0.546922  
     311A      0.548551   312A      0.550131   313A      0.552918  
     314A      0.553335   315A      0.560670   316A      0.565514  
     317A      0.567543   318A      0.571451   319A      0.576291  
     320A      0.578232   321A      0.580363   322A      0.585430  
     323A      0.587577   324A      0.590924   325A      0.594302  
     326A      0.598580   327A      0.599490   328A      0.602958  
     329A      0.605102   330A      0.608429   331A      0.609890  
     332A      0.611786   333A      0.612692   334A      0.616904  
     335A      0.619824   336A      0.624603   337A      0.627543  
     338A      0.632917   339A      0.635427   340A      0.636997  
     341A      0.642793   342A      0.643552   343A      0.644870  
     344A      0.647918   345A      0.652966   346A      0.656051  
     347A      0.657432   348A      0.660766   349A      0.662037  
     350A      0.665430   351A      0.667203   352A      0.672347  
     353A      0.676908   354A      0.678082   355A      0.680384  
     356A      0.688623   357A      0.690871   358A      0.695402  
     359A      0.696503   360A      0.703383   361A      0.705716  
     362A      0.706943   363A      0.708918   364A      0.713138  
     365A      0.715918   366A      0.717330   367A      0.719540  
     368A      0.721199   369A      0.725944   370A      0.728796  
     371A      0.730606   372A      0.734461   373A      0.737655  
     374A      0.740165   375A      0.747251   376A      0.749618  
     377A      0.751635   378A      0.754910   379A      0.756667  
     380A      0.759220   381A      0.760656   382A      0.762794  
     383A      0.770515   384A      0.771687   385A      0.774230  
     386A      0.776864   387A      0.779748   388A      0.784931  
     389A      0.787042   390A      0.789741   391A      0.792302  
     392A      0.793603   393A      0.798040   394A      0.799889  
     395A      0.801491   396A      0.805958   397A      0.807391  
     398A      0.811079   399A      0.815123   400A      0.816892  
     401A      0.818806   402A      0.823695   403A      0.826017  
     404A      0.830149   405A      0.835793   406A      0.839120  
     407A      0.844612   408A      0.847261   409A      0.850863  
     410A      0.853960   411A      0.858995   412A      0.862842  
     413A      0.864462   414A      0.869581   415A      0.871719  
     416A      0.874384   417A      0.875321   418A      0.878391  
     419A      0.885391   420A      0.889930   421A      0.893396  
     422A      0.894795   423A      0.900546   424A      0.902715  
     425A      0.904735   426A      0.910182   427A      0.916812  
     428A      0.919820   429A      0.920609   430A      0.928283  
     431A      0.931628   432A      0.933435   433A      0.937038  
     434A      0.940304   435A      0.944309   436A      0.946833  
     437A      0.951391   438A      0.958830   439A      0.963026  
     440A      0.965861   441A      0.968217   442A      0.971107  
     443A      0.972516   444A      0.973607   445A      0.979913  
     446A      0.981954   447A      0.988722   448A      0.994083  
     449A      0.995995   450A      0.999854   451A      1.006086  
     452A      1.009361   453A      1.009613   454A      1.015871  
     455A      1.021850   456A      1.025743   457A      1.034181  
     458A      1.038158   459A      1.041166   460A      1.044523  
     461A      1.046025   462A      1.056027   463A      1.062715  
     464A      1.063493   465A      1.071085   466A      1.073687  
     467A      1.078134   468A      1.082892   469A      1.085519  
     470A      1.091287   471A      1.094968   472A      1.096223  
     473A      1.100382   474A      1.104874   475A      1.109345  
     476A      1.116120   477A      1.117728   478A      1.122873  
     479A      1.130644   480A      1.136358   481A      1.141064  
     482A      1.142123   483A      1.145405   484A      1.149342  
     485A      1.153255   486A      1.161701   487A      1.162513  
     488A      1.171018   489A      1.174652   490A      1.181615  
     491A      1.189439   492A      1.195425   493A      1.200631  
     494A      1.206906   495A      1.207679   496A      1.217413  
     497A      1.220158   498A      1.225359   499A      1.228270  
     500A      1.235319   501A      1.239439   502A      1.250814  
     503A      1.254195   504A      1.255671   505A      1.265025  
     506A      1.269807   507A      1.280218   508A      1.281875  
     509A      1.289777   510A      1.292565   511A      1.302271  
     512A      1.304055   513A      1.305211   514A      1.311275  
     515A      1.312456   516A      1.316405   517A      1.319952  
     518A      1.328854   519A      1.331829   520A      1.338225  
     521A      1.348061   522A      1.348917   523A      1.354538  
     524A      1.359926   525A      1.364679   526A      1.371456  
     527A      1.373826   528A      1.378617   529A      1.387655  
     530A      1.389457   531A      1.394719   532A      1.406855  
     533A      1.410028   534A      1.418011   535A      1.427131  
     536A      1.433716   537A      1.438471   538A      1.446696  
     539A      1.448404   540A      1.451350   541A      1.457113  
     542A      1.465123   543A      1.475147   544A      1.480024  
     545A      1.484479   546A      1.490918   547A      1.494316  
     548A      1.498744   549A      1.502863   550A      1.505299  
     551A      1.511216   552A      1.519870   553A      1.520630  
     554A      1.523652   555A      1.525694   556A      1.531828  
     557A      1.540999   558A      1.544812   559A      1.559082  
     560A      1.568948   561A      1.573121   562A      1.576335  
     563A      1.583301   564A      1.589099   565A      1.590273  
     566A      1.606088   567A      1.609990   568A      1.613241  
     569A      1.614483   570A      1.621220   571A      1.627136  
     572A      1.641813   573A      1.650107   574A      1.657267  
     575A      1.659962   576A      1.670461   577A      1.680692  
     578A      1.685190   579A      1.692297   580A      1.696828  
     581A      1.699658   582A      1.703846   583A      1.715051  
     584A      1.724628   585A      1.728305   586A      1.736391  
     587A      1.744482   588A      1.751904   589A      1.761985  
     590A      1.767375   591A      1.775298   592A      1.781993  
     593A      1.786537   594A      1.792363   595A      1.797218  
     596A      1.801266   597A      1.805341   598A      1.817456  
     599A      1.828974   600A      1.830285   601A      1.833242  
     602A      1.837195   603A      1.842366   604A      1.858057  
     605A      1.865598   606A      1.868732   607A      1.871621  
     608A      1.874285   609A      1.886544   610A      1.887577  
     611A      1.891463   612A      1.899678   613A      1.910388  
     614A      1.915524   615A      1.920584   616A      1.926264  
     617A      1.933096   618A      1.938343   619A      1.940062  
     620A      1.948333   621A      1.953391   622A      1.959856  
     623A      1.965256   624A      1.968454   625A      1.980785  
     626A      1.982199   627A      1.989788   628A      1.994512  
     629A      2.001122   630A      2.009580   631A      2.014373  
     632A      2.024387   633A      2.029740   634A      2.032439  
     635A      2.035268   636A      2.041215   637A      2.046095  
     638A      2.055721   639A      2.064287   640A      2.067792  
     641A      2.068207   642A      2.077672   643A      2.080409  
     644A      2.084469   645A      2.088361   646A      2.095223  
     647A      2.099858   648A      2.104630   649A      2.108868  
     650A      2.119033   651A      2.122119   652A      2.124595  
     653A      2.128724   654A      2.138300   655A      2.139573  
     656A      2.146536   657A      2.148506   658A      2.154178  
     659A      2.158470   660A      2.172396   661A      2.175636  
     662A      2.187206   663A      2.188732   664A      2.198047  
     665A      2.201262   666A      2.202259   667A      2.209376  
     668A      2.217001   669A      2.219563   670A      2.224831  
     671A      2.230123   672A      2.232444   673A      2.243977  
     674A      2.249184   675A      2.261929   676A      2.264180  
     677A      2.270416   678A      2.272938   679A      2.286788  
     680A      2.288158   681A      2.292260   682A      2.304002  
     683A      2.308330   684A      2.312403   685A      2.317824  
     686A      2.321155   687A      2.328690   688A      2.332702  
     689A      2.337562   690A      2.340735   691A      2.347698  
     692A      2.352167   693A      2.357398   694A      2.360003  
     695A      2.365063   696A      2.367534   697A      2.369145  
     698A      2.375332   699A      2.381344   700A      2.385700  
     701A      2.394297   702A      2.400862   703A      2.412693  
     704A      2.422881   705A      2.423005   706A      2.434869  
     707A      2.435637   708A      2.441685   709A      2.450485  
     710A      2.455253   711A      2.462075   712A      2.468950  
     713A      2.475492   714A      2.480509   715A      2.487224  
     716A      2.494291   717A      2.497534   718A      2.504378  
     719A      2.514576   720A      2.518603   721A      2.526014  
     722A      2.531745   723A      2.534520   724A      2.540224  
     725A      2.543365   726A      2.549639   727A      2.555889  
     728A      2.559787   729A      2.572333   730A      2.574459  
     731A      2.583618   732A      2.593827   733A      2.599815  
     734A      2.607363   735A      2.614638   736A      2.617669  
     737A      2.623260   738A      2.638331   739A      2.640961  
     740A      2.646392   741A      2.650025   742A      2.662689  
     743A      2.679817   744A      2.683200   745A      2.688553  
     746A      2.695177   747A      2.714749   748A      2.724772  
     749A      2.729803   750A      2.735620   751A      2.737585  
     752A      2.741592   753A      2.753406   754A      2.756666  
     755A      2.760880   756A      2.768523   757A      2.774689  
     758A      2.794827   759A      2.805535   760A      2.810369  
     761A      2.822591   762A      2.828876   763A      2.844712  
     764A      2.852793   765A      2.854406   766A      2.862474  
     767A      2.872525   768A      2.880078   769A      2.882790  
     770A      2.887406   771A      2.903043   772A      2.905447  
     773A      2.913262   774A      2.922703   775A      2.935039  
     776A      2.939886   777A      2.947113   778A      2.958123  
     779A      2.964296   780A      2.990596   781A      2.996009  
     782A      3.007619   783A      3.017222   784A      3.020036  
     785A      3.032030   786A      3.033436   787A      3.051462  
     788A      3.054140   789A      3.071366   790A      3.083233  
     791A      3.104056   792A      3.112841   793A      3.118623  
     794A      3.134894   795A      3.169402   796A      3.176909  
     797A      3.180708   798A      3.187053   799A      3.224143  
     800A      3.236793   801A      3.272090   802A      3.280186  
     803A      3.305457   804A      3.335624   805A      3.367693  
     806A      3.384318   807A      3.409885   808A      3.421303  
     809A      3.425061   810A      3.438798   811A      3.460498  
     812A      3.468932   813A      3.474660   814A      3.502297  
     815A      3.560819   816A      3.578713   817A      3.594196  
     818A      3.600224   819A      3.641177   820A      3.642877  
     821A      3.649232   822A      3.655748   823A      3.690361  
     824A      3.696943   825A      3.715615   826A      3.734812  
     827A      3.739868   828A      3.747386   829A      3.749621  
     830A      3.758502   831A      3.762324   832A      3.771587  
     833A      3.788214   834A      3.791406   835A      3.797773  
     836A      3.811833   837A      3.816247   838A      3.819154  
     839A      3.822831   840A      3.829974   841A      3.837506  
     842A      3.840779   843A      3.844704   844A      3.856044  
     845A      3.868322   846A      3.871729   847A      3.885551  
     848A      3.886845   849A      3.894014   850A      3.927600  
     851A      3.940208   852A      3.944643   853A      3.954794  
     854A      3.961638   855A      3.961880   856A      3.971545  
     857A      3.975624   858A      3.977450   859A      3.988923  
     860A      4.008727   861A      4.013357   862A      4.026966  
     863A      4.066773   864A      4.084116   865A      4.091677  
     866A      4.108251   867A      4.124912   868A      4.135018  
     869A      4.171001   870A      4.182165   871A      4.187623  
     872A      4.197583   873A      4.240276   874A      4.282728  
     875A      4.352794   876A      4.400252   877A      4.403547  
     878A      4.461705  

    Final Occupation by Irrep:
              A 
    DOCC [   109 ]

  Energy converged.

  @DF-RHF Final Energy: -1511.80276738943166

   => Energetics <=

    Nuclear Repulsion Energy =           2605.3050234228217050
    One-Electron Energy =               -7256.4562743765509367
    Two-Electron Energy =                3139.3484835642980215
    Total Energy =                      -1511.8027673894316649



Properties will be evaluated at   0.000000,   0.000000,   0.000000 Bohr

Properties computed using the SCF density matrix

  Nuclear Dipole Moment: (a.u.)
     X:     3.6080      Y:     8.5823      Z:    -2.3649

  Electronic Dipole Moment: (a.u.)
     X:    -2.9355      Y:    -7.9330      Z:     3.6050

  Dipole Moment: (a.u.)
     X:     0.6725      Y:     0.6493      Z:     1.2401     Total:     1.5529

  Dipole Moment: (Debye)
     X:     1.7093      Y:     1.6503      Z:     3.1520     Total:     3.9472


*** tstop() called on hex15 at Thu Mar  1 17:37:27 2018
Module time:
	user time   =     980.88 seconds =      16.35 minutes
	system time =       6.24 seconds =       0.10 minutes
	total time  =        394 seconds =       6.57 minutes
Total time:
	user time   =     980.88 seconds =      16.35 minutes
	system time =       6.24 seconds =       0.10 minutes
	total time  =        394 seconds =       6.57 minutes

*** Psi4 exiting successfully. Buy a developer a beer!
