
    -----------------------------------------------------------------------
          Psi4: An Open-Source Ab Initio Electronic Structure Package
                               Psi4 1.2a1.dev875 

                         Git: Rev {symm_JK} 0ea9481 dirty


    R. M. Parrish, L. A. Burns, D. G. A. Smith, A. C. Simmonett,
    A. E. DePrince III, E. G. Hohenstein, U. Bozkaya, A. Yu. Sokolov,
    R. Di Remigio, R. M. Richard, J. F. Gonthier, A. M. James,
    H. R. McAlexander, A. Kumar, M. Saitow, X. Wang, B. P. Pritchard,
    P. Verma, H. F. Schaefer III, K. Patkowski, R. A. King, E. F. Valeev,
    F. A. Evangelista, J. M. Turney, T. D. Crawford, and C. D. Sherrill,
    J. Chem. Theory Comput. 13(7) pp 3185--3197 (2017).
    (doi: 10.1021/acs.jctc.7b00174)

    -----------------------------------------------------------------------


    Psi4 started on: Wednesday, 07 March 2018 07:59PM

    Process ID:  23723
    PSIDATADIR: /theoryfs2/ds/schieber/Gits/mspsi4/objdir3/stage/usr/local/psi4/share/psi4
    Memory:     500.0 MiB
    Threads:    6
    
  ==> Input File <==

--------------------------------------------------------------------------
memory 60 Gb

molecule protein_63 {
0 1
 N   18.626  30.444   6.627
 C   17.853  29.516   5.837
 C   16.945  30.292   4.886
 O   15.843  30.678   5.237
 C   17.047  28.642   6.811
 C   16.316  27.513   6.146
 O   16.236  27.458   4.905
 O   15.762  26.696   6.882
 N    4.567  24.042   8.795
 C    4.886  22.777   8.145
 C    6.265  22.720   7.521
 O    6.723  23.689   6.900
 N   17.407  27.054  -1.437
 C   17.227  26.751  -0.026
 C   18.555  26.446   0.653
 O   19.003  25.309   0.692
 C   16.258  25.572   0.084
 C   15.759  25.336   1.493
 O   16.399  25.780   2.453
 O   14.731  24.675   1.645
 N   19.106  26.199   3.688
 C   18.957  25.372   4.876
 C   18.845  23.903   4.520
 O   18.660  23.054   5.417
 N   20.536  20.559   2.918
 C   21.779  19.912   2.496
 C   21.693  19.374   1.107
 O   22.642  19.502   0.361
 C   22.169  18.827   3.447
 C   22.272  19.337   4.844
 O   22.714  20.482   5.029
 O   21.836  18.647   5.778
 H   18.180  30.990   7.295
 H   18.510  28.835   5.249
 H   16.336  29.276   7.377
 H   17.778  28.186   7.516
 H   15.845  26.702   7.843
 H    4.436  24.871   8.195
 H    4.744  21.930   8.802
 H    4.143  22.632   7.335
 H   17.860  26.421  -2.023
 H   16.724  27.595   0.500
 H   16.724  24.663  -0.337
 H   15.363  25.845  -0.519
 H   16.737  25.171   3.109
 H   18.314  26.771   3.377
 H   18.015  25.631   5.391
 H   19.792  25.567   5.577
 H   19.976  20.073   3.597
 H   22.602  20.664   2.537
 H   23.175  18.459   3.144
 H   21.465  17.966   3.392
 H   21.492  17.752   5.634
 H   19.646  30.419   6.619
 H   17.295  30.415   3.850
 H    4.454  24.117   9.806
 H    6.887  21.864   7.822
 H   16.947  27.858  -1.864
 H   19.060  27.284   1.155
 H   20.034  26.347   3.290
 H   18.824  23.654   3.449
 H   20.197  21.395   2.443
 H   20.727  18.956   0.786
}

set {
basis aug-cc-pvqz
scf_type df
guess sad
DF_SCF_TYPE DFJK
}

energy('HF')
--------------------------------------------------------------------------

  Memory set to  55.879 GiB by Python driver.

*** tstart() called on hex15
*** at Wed Mar  7 19:59:59 2018

   => Loading Basis Set <=

    Name: AUG-CC-PVQZ
    Role: ORBITAL
    Keyword: BASIS
    atoms 1, 9, 13, 21, 25                                   entry N          line   359 file /theoryfs2/ds/schieber/Gits/mspsi4/objdir3/stage/usr/local/psi4/share/psi4/basis/aug-cc-pvqz.gbs 
    atoms 2-3, 5-6, 10-11, 14-15, 17-18, 22-23, 26-27, 29-30 entry C          line   299 file /theoryfs2/ds/schieber/Gits/mspsi4/objdir3/stage/usr/local/psi4/share/psi4/basis/aug-cc-pvqz.gbs 
    atoms 4, 7-8, 12, 16, 19-20, 24, 28, 31-32               entry O          line   419 file /theoryfs2/ds/schieber/Gits/mspsi4/objdir3/stage/usr/local/psi4/share/psi4/basis/aug-cc-pvqz.gbs 
    atoms 33-63                                              entry H          line    36 file /theoryfs2/ds/schieber/Gits/mspsi4/objdir3/stage/usr/local/psi4/share/psi4/basis/aug-cc-pvqz.gbs 


         ---------------------------------------------------------
                                   SCF
            by Justin Turney, Rob Parrish, Andy Simmonett
                             and Daniel Smith
                              RHF Reference
                        6 Threads,  57220 MiB Core
         ---------------------------------------------------------

  ==> Geometry <==

    Molecular point group: c1
    Full point group: C1

    Geometry (in Angstrom), charge = 0, multiplicity = 1:

       Center              X                  Y                   Z               Mass       
    ------------   -----------------  -----------------  -----------------  -----------------
           N          1.657504219370     5.864960045694     2.581113844373    14.003074004780
           C          0.884504219370     4.936960045694     1.791113844373    12.000000000000
           C         -0.023495780630     5.712960045694     0.840113844373    12.000000000000
           O         -1.125495780630     6.098960045694     1.191113844373    15.994914619560
           C          0.078504219370     4.062960045694     2.765113844373    12.000000000000
           C         -0.652495780630     2.933960045694     2.100113844373    12.000000000000
           O         -0.732495780630     2.878960045694     0.859113844373    15.994914619560
           O         -1.206495780630     2.116960045694     2.836113844373    15.994914619560
           N        -12.401495780630    -0.537039954306     4.749113844373    14.003074004780
           C        -12.082495780630    -1.802039954306     4.099113844373    12.000000000000
           C        -10.703495780630    -1.859039954306     3.475113844373    12.000000000000
           O        -10.245495780630    -0.890039954306     2.854113844373    15.994914619560
           N          0.438504219370     2.474960045694    -5.482886155627    14.003074004780
           C          0.258504219370     2.171960045694    -4.071886155627    12.000000000000
           C          1.586504219370     1.866960045694    -3.392886155627    12.000000000000
           O          2.034504219370     0.729960045694    -3.353886155627    15.994914619560
           C         -0.710495780630     0.992960045694    -3.961886155627    12.000000000000
           C         -1.209495780630     0.756960045694    -2.552886155627    12.000000000000
           O         -0.569495780630     1.200960045694    -1.592886155627    15.994914619560
           O         -2.237495780630     0.095960045694    -2.400886155627    15.994914619560
           N          2.137504219370     1.619960045694    -0.357886155627    14.003074004780
           C          1.988504219370     0.792960045694     0.830113844373    12.000000000000
           C          1.876504219370    -0.676039954306     0.474113844373    12.000000000000
           O          1.691504219370    -1.525039954306     1.371113844373    15.994914619560
           N          3.567504219370    -4.020039954306    -1.127886155627    14.003074004780
           C          4.810504219370    -4.667039954306    -1.549886155627    12.000000000000
           C          4.724504219370    -5.205039954306    -2.938886155627    12.000000000000
           O          5.673504219370    -5.077039954306    -3.684886155627    15.994914619560
           C          5.200504219370    -5.752039954306    -0.598886155627    12.000000000000
           C          5.303504219370    -5.242039954306     0.798113844373    12.000000000000
           O          5.745504219370    -4.097039954306     0.983113844373    15.994914619560
           O          4.867504219370    -5.932039954306     1.732113844373    15.994914619560
           H          1.211504219370     6.410960045694     3.249113844373     1.007825032070
           H          1.541504219370     4.255960045694     1.203113844373     1.007825032070
           H         -0.632495780630     4.696960045694     3.331113844373     1.007825032070
           H          0.809504219370     3.606960045694     3.470113844373     1.007825032070
           H         -1.123495780630     2.122960045694     3.797113844373     1.007825032070
           H        -12.532495780630     0.291960045694     4.149113844373     1.007825032070
           H        -12.224495780630    -2.649039954306     4.756113844373     1.007825032070
           H        -12.825495780630    -1.947039954306     3.289113844373     1.007825032070
           H          0.891504219370     1.841960045694    -6.068886155627     1.007825032070
           H         -0.244495780630     3.015960045694    -3.545886155627     1.007825032070
           H         -0.244495780630     0.083960045694    -4.382886155627     1.007825032070
           H         -1.605495780630     1.265960045694    -4.564886155627     1.007825032070
           H         -0.231495780630     0.591960045694    -0.936886155627     1.007825032070
           H          1.345504219370     2.191960045694    -0.668886155627     1.007825032070
           H          1.046504219370     1.051960045694     1.345113844373     1.007825032070
           H          2.823504219370     0.987960045694     1.531113844373     1.007825032070
           H          3.007504219370    -4.506039954306    -0.448886155627     1.007825032070
           H          5.633504219370    -3.915039954306    -1.508886155627     1.007825032070
           H          6.206504219370    -6.120039954306    -0.901886155627     1.007825032070
           H          4.496504219370    -6.613039954306    -0.653886155627     1.007825032070
           H          4.523504219370    -6.827039954306     1.588113844373     1.007825032070
           H          2.677504219370     5.839960045694     2.573113844373     1.007825032070
           H          0.326504219370     5.835960045694    -0.195886155627     1.007825032070
           H        -12.514495780630    -0.462039954306     5.760113844373     1.007825032070
           H        -10.081495780630    -2.715039954306     3.776113844373     1.007825032070
           H         -0.021495780630     3.278960045694    -5.909886155627     1.007825032070
           H          2.091504219370     2.704960045694    -2.890886155627     1.007825032070
           H          3.065504219370     1.767960045694    -0.755886155627     1.007825032070
           H          1.855504219370    -0.925039954306    -0.596886155627     1.007825032070
           H          3.228504219370    -3.184039954306    -1.602886155627     1.007825032070
           H          3.758504219370    -5.623039954306    -3.259886155627     1.007825032070

  Running in c1 symmetry.

  Rotational constants: A =      0.00221  B =      0.00111  C =      0.00093 [cm^-1]
  Rotational constants: A =     66.16714  B =     33.30218  C =     27.81539 [MHz]
  Nuclear repulsion = 2982.748493552713626

  Charge       = 0
  Multiplicity = 1
  Electrons    = 250
  Nalpha       = 125
  Nbeta        = 125

  ==> Algorithm <==

  SCF Algorithm Type is DF.
  DIIS enabled.
  MOM disabled.
  Fractional occupation disabled.
  Guess Type is SAD.
  Energy threshold   = 1.00e-06
  Density threshold  = 1.00e-06
  Integral threshold = 0.00e+00

  ==> Primary Basis <==

  Basis Set: AUG-CC-PVQZ
    Blend: AUG-CC-PVQZ
    Number of shells: 1074
    Number of basis function: 3986
    Number of Cartesian functions: 5065
    Spherical Harmonics?: true
    Max angular momentum: 4

   => Loading Basis Set <=

    Name: (AUG-CC-PVQZ AUX)
    Role: JKFIT
    Keyword: DF_BASIS_SCF
    atoms 1, 9, 13, 21, 25                                   entry N          line   248 file /theoryfs2/ds/schieber/Gits/mspsi4/objdir3/stage/usr/local/psi4/share/psi4/basis/aug-cc-pvqz-jkfit.gbs 
    atoms 2-3, 5-6, 10-11, 14-15, 17-18, 22-23, 26-27, 29-30 entry C          line   178 file /theoryfs2/ds/schieber/Gits/mspsi4/objdir3/stage/usr/local/psi4/share/psi4/basis/aug-cc-pvqz-jkfit.gbs 
    atoms 4, 7-8, 12, 16, 19-20, 24, 28, 31-32               entry O          line   318 file /theoryfs2/ds/schieber/Gits/mspsi4/objdir3/stage/usr/local/psi4/share/psi4/basis/aug-cc-pvqz-jkfit.gbs 
    atoms 33-63                                              entry H          line    70 file /theoryfs2/ds/schieber/Gits/mspsi4/objdir3/stage/usr/local/psi4/share/psi4/basis/aug-cc-pvqz-jkfit.gbs 

  ==> Pre-Iterations <==

   -------------------------------------------------------
    Irrep   Nso     Nmo     Nalpha   Nbeta   Ndocc  Nsocc
   -------------------------------------------------------
     A       3986    3986       0       0       0       0
   -------------------------------------------------------
    Total    3986    3986     125     125     125       0
   -------------------------------------------------------

  ==> Integral Setup <==

  ==> DFJK: Density-Fitted J/K Matrices <==

    J tasked:                  Yes
    K tasked:                  Yes
    wK tasked:                  No
    OpenMP threads:              6
    Integrals threads:           6
    Memory (MB):             42915
    Algorithm:                Disk
    Integral Cache:           NONE
    Schwarz Cutoff:          1E-12
    Fitting Condition:       1E-12

   => Auxiliary Basis Set <=

  Basis Set: (AUG-CC-PVQZ AUX)
    Blend: AUG-CC-PVQZ-JKFIT
    Number of shells: 1646
    Number of basis function: 6900
    Number of Cartesian functions: 9467
    Spherical Harmonics?: true
    Max angular momentum: 5

  Minimum eigenvalue in the overlap matrix is 3.7299527120E-07.
  Using Symmetric Orthogonalization.

  SCF Guess: Superposition of Atomic Densities via on-the-fly atomic UHF.

  ==> Iterations <==

                           Total Energy        Delta E     RMS |[F,P]|

   @DF-RHF iter   0: -1730.44866477738196   -1.73045e+03   6.50967e-03 
   @DF-RHF iter   1: -1719.01386823865482    1.14348e+01   9.19658e-04 
   @DF-RHF iter   2: -1719.76701162278414   -7.53143e-01   6.83559e-04 DIIS
   @DF-RHF iter   3: -1720.21130680701322   -4.44295e-01   1.32840e-04 DIIS
   @DF-RHF iter   4: -1720.25160836816212   -4.03016e-02   4.98585e-05 DIIS
   @DF-RHF iter   5: -1720.25888516041618   -7.27679e-03   2.17065e-05 DIIS
   @DF-RHF iter   6: -1720.26094393673839   -2.05878e-03   1.03904e-05 DIIS
   @DF-RHF iter   7: -1720.26151023532270   -5.66299e-04   4.84350e-06 DIIS
   @DF-RHF iter   8: -1720.26163189151634   -1.21656e-04   2.20993e-06 DIIS
   @DF-RHF iter   9: -1720.26166259214506   -3.07006e-05   1.07812e-06 DIIS
   @DF-RHF iter  10: -1720.26167107266770   -8.48052e-06   5.06457e-07 DIIS
   @DF-RHF iter  11: -1720.26167310617075   -2.03350e-06   1.92084e-07 DIIS
   @DF-RHF iter  12: -1720.26167334810452   -2.41934e-07   8.18251e-08 DIIS

  ==> Post-Iterations <==

    Orbital Energies (a.u.)
    -----------------------

    Doubly Occupied:                                                      

       1A    -20.643074     2A    -20.635411     3A    -20.601659  
       4A    -20.567332     5A    -20.559330     6A    -20.557441  
       7A    -20.557296     8A    -20.554690     9A    -20.538060  
      10A    -20.519380    11A    -20.514669    12A    -15.558349  
      13A    -15.552364    14A    -15.547772    15A    -15.543890  
      16A    -15.543155    17A    -11.395622    18A    -11.382505  
      19A    -11.365775    20A    -11.344569    21A    -11.337188  
      22A    -11.335655    23A    -11.331304    24A    -11.326473  
      25A    -11.295990    26A    -11.290296    27A    -11.280732  
      28A    -11.275844    29A    -11.273632    30A    -11.265229  
      31A    -11.263811    32A    -11.238286    33A     -1.527297  
      34A     -1.512952    35A     -1.499150    36A     -1.397570  
      37A     -1.392349    38A     -1.391563    39A     -1.370264  
      40A     -1.367654    41A     -1.356935    42A     -1.340135  
      43A     -1.332743    44A     -1.214243    45A     -1.203048  
      46A     -1.193897    47A     -1.185128    48A     -1.169440  
      49A     -1.055972    50A     -1.055592    51A     -1.044004  
      52A     -0.967460    53A     -0.964676    54A     -0.949959  
      55A     -0.940705    56A     -0.937701    57A     -0.906460  
      58A     -0.891265    59A     -0.875471    60A     -0.810173  
      61A     -0.802986    62A     -0.799229    63A     -0.796081  
      64A     -0.794835    65A     -0.747978    66A     -0.734283  
      67A     -0.732726    68A     -0.718793    69A     -0.712624  
      70A     -0.706220    71A     -0.699513    72A     -0.695579  
      73A     -0.693776    74A     -0.688297    75A     -0.685577  
      76A     -0.680262    77A     -0.666943    78A     -0.666012  
      79A     -0.662692    80A     -0.659182    81A     -0.658748  
      82A     -0.654140    83A     -0.649450    84A     -0.643841  
      85A     -0.635197    86A     -0.631366    87A     -0.630519  
      88A     -0.629628    89A     -0.626544    90A     -0.623222  
      91A     -0.610765    92A     -0.609723    93A     -0.590483  
      94A     -0.577498    95A     -0.573573    96A     -0.567879  
      97A     -0.562800    98A     -0.559261    99A     -0.550688  
     100A     -0.549556   101A     -0.534032   102A     -0.531882  
     103A     -0.530944   104A     -0.521721   105A     -0.515625  
     106A     -0.506948   107A     -0.501824   108A     -0.490058  
     109A     -0.488324   110A     -0.474301   111A     -0.462458  
     112A     -0.460155   113A     -0.457193   114A     -0.448935  
     115A     -0.444874   116A     -0.443778   117A     -0.441453  
     118A     -0.440704   119A     -0.435632   120A     -0.433443  
     121A     -0.386650   122A     -0.382313   123A     -0.378274  
     124A     -0.376951   125A     -0.369816  

    Virtual:                                                              

     126A      0.012390   127A      0.015171   128A      0.018107  
     129A      0.023417   130A      0.024713   131A      0.030514  
     132A      0.031757   133A      0.034450   134A      0.035081  
     135A      0.038011   136A      0.039131   137A      0.039815  
     138A      0.041321   139A      0.045284   140A      0.046327  
     141A      0.048019   142A      0.053275   143A      0.055275  
     144A      0.055836   145A      0.058715   146A      0.060653  
     147A      0.061674   148A      0.064491   149A      0.066543  
     150A      0.069266   151A      0.072473   152A      0.073451  
     153A      0.074506   154A      0.075873   155A      0.078597  
     156A      0.082044   157A      0.083320   158A      0.084174  
     159A      0.085528   160A      0.086569   161A      0.087568  
     162A      0.089745   163A      0.091422   164A      0.092255  
     165A      0.093013   166A      0.094790   167A      0.096854  
     168A      0.099488   169A      0.100782   170A      0.102643  
     171A      0.103724   172A      0.105512   173A      0.107058  
     174A      0.109563   175A      0.111081   176A      0.112799  
     177A      0.113658   178A      0.113812   179A      0.116192  
     180A      0.116557   181A      0.118109   182A      0.119067  
     183A      0.120477   184A      0.121451   185A      0.123426  
     186A      0.124053   187A      0.125057   188A      0.126861  
     189A      0.126984   190A      0.128092   191A      0.129308  
     192A      0.131372   193A      0.131853   194A      0.132484  
     195A      0.134227   196A      0.135570   197A      0.136422  
     198A      0.138736   199A      0.140576   200A      0.141836  
     201A      0.143314   202A      0.144841   203A      0.145904  
     204A      0.147160   205A      0.147674   206A      0.150062  
     207A      0.153245   208A      0.154244   209A      0.157584  
     210A      0.158889   211A      0.159573   212A      0.161237  
     213A      0.162776   214A      0.163714   215A      0.166600  
     216A      0.166976   217A      0.168054   218A      0.169403  
     219A      0.170038   220A      0.170775   221A      0.173703  
     222A      0.175559   223A      0.176293   224A      0.177730  
     225A      0.179677   226A      0.181657   227A      0.183196  
     228A      0.185701   229A      0.186878   230A      0.188626  
     231A      0.189178   232A      0.190495   233A      0.191710  
     234A      0.194869   235A      0.196233   236A      0.199472  
     237A      0.200976   238A      0.202648   239A      0.203971  
     240A      0.204674   241A      0.206977   242A      0.207628  
     243A      0.210900   244A      0.212367   245A      0.214413  
     246A      0.215068   247A      0.215986   248A      0.217384  
     249A      0.218493   250A      0.220317   251A      0.220460  
     252A      0.224403   253A      0.224832   254A      0.227169  
     255A      0.229076   256A      0.231139   257A      0.231876  
     258A      0.233973   259A      0.236039   260A      0.237349  
     261A      0.238387   262A      0.239530   263A      0.240859  
     264A      0.242335   265A      0.244611   266A      0.245026  
     267A      0.247139   268A      0.248349   269A      0.250101  
     270A      0.251661   271A      0.253183   272A      0.254471  
     273A      0.254640   274A      0.256131   275A      0.258977  
     276A      0.260784   277A      0.262054   278A      0.263652  
     279A      0.264946   280A      0.265308   281A      0.265668  
     282A      0.267940   283A      0.268523   284A      0.270020  
     285A      0.271235   286A      0.272898   287A      0.274316  
     288A      0.276742   289A      0.276977   290A      0.277969  
     291A      0.278403   292A      0.279630   293A      0.280636  
     294A      0.282736   295A      0.283963   296A      0.285220  
     297A      0.286383   298A      0.287274   299A      0.289204  
     300A      0.290725   301A      0.291085   302A      0.292913  
     303A      0.293937   304A      0.297452   305A      0.298751  
     306A      0.299847   307A      0.300011   308A      0.302144  
     309A      0.302528   310A      0.303397   311A      0.304312  
     312A      0.306443   313A      0.308132   314A      0.310191  
     315A      0.310932   316A      0.311732   317A      0.312101  
     318A      0.313699   319A      0.315735   320A      0.316293  
     321A      0.319828   322A      0.320220   323A      0.320784  
     324A      0.320889   325A      0.324585   326A      0.326291  
     327A      0.327732   328A      0.327945   329A      0.328860  
     330A      0.329961   331A      0.331026   332A      0.331332  
     333A      0.332723   334A      0.333276   335A      0.334853  
     336A      0.336671   337A      0.338815   338A      0.339718  
     339A      0.341940   340A      0.343718   341A      0.344781  
     342A      0.347203   343A      0.348509   344A      0.350220  
     345A      0.351133   346A      0.353434   347A      0.354295  
     348A      0.355308   349A      0.356809   350A      0.359515  
     351A      0.360338   352A      0.362937   353A      0.364013  
     354A      0.364866   355A      0.366624   356A      0.368486  
     357A      0.368618   358A      0.370409   359A      0.371741  
     360A      0.372852   361A      0.374329   362A      0.375692  
     363A      0.376407   364A      0.377611   365A      0.380202  
     366A      0.381778   367A      0.384569   368A      0.385090  
     369A      0.386350   370A      0.386856   371A      0.389697  
     372A      0.390371   373A      0.392014   374A      0.393277  
     375A      0.393946   376A      0.395368   377A      0.395795  
     378A      0.397356   379A      0.399923   380A      0.400729  
     381A      0.402127   382A      0.403013   383A      0.405198  
     384A      0.405626   385A      0.405996   386A      0.406618  
     387A      0.410268   388A      0.411179   389A      0.414315  
     390A      0.415040   391A      0.415669   392A      0.418540  
     393A      0.420169   394A      0.420591   395A      0.421093  
     396A      0.422850   397A      0.425331   398A      0.427509  
     399A      0.428290   400A      0.430174   401A      0.430755  
     402A      0.432682   403A      0.433394   404A      0.433997  
     405A      0.436305   406A      0.437035   407A      0.438974  
     408A      0.439829   409A      0.442389   410A      0.443221  
     411A      0.445292   412A      0.446262   413A      0.446970  
     414A      0.448820   415A      0.450279   416A      0.451003  
     417A      0.451942   418A      0.454203   419A      0.455777  
     420A      0.457520   421A      0.459462   422A      0.460739  
     423A      0.462485   424A      0.462674   425A      0.465058  
     426A      0.465684   427A      0.465925   428A      0.468007  
     429A      0.468978   430A      0.469609   431A      0.471778  
     432A      0.472125   433A      0.474943   434A      0.476384  
     435A      0.477216   436A      0.478121   437A      0.480215  
     438A      0.481114   439A      0.482704   440A      0.484037  
     441A      0.485931   442A      0.487581   443A      0.488911  
     444A      0.489315   445A      0.490726   446A      0.491866  
     447A      0.493133   448A      0.494180   449A      0.495342  
     450A      0.497697   451A      0.500427   452A      0.501214  
     453A      0.503255   454A      0.504450   455A      0.505933  
     456A      0.506473   457A      0.507622   458A      0.509464  
     459A      0.510208   460A      0.512377   461A      0.512898  
     462A      0.515945   463A      0.518502   464A      0.519552  
     465A      0.523581   466A      0.524054   467A      0.524962  
     468A      0.527086   469A      0.528964   470A      0.529726  
     471A      0.530349   472A      0.531046   473A      0.532421  
     474A      0.534646   475A      0.536511   476A      0.537280  
     477A      0.538471   478A      0.540186   479A      0.542916  
     480A      0.544765   481A      0.545862   482A      0.546396  
     483A      0.547719   484A      0.548697   485A      0.552138  
     486A      0.553171   487A      0.554330   488A      0.556349  
     489A      0.559535   490A      0.560199   491A      0.562353  
     492A      0.565144   493A      0.565441   494A      0.567954  
     495A      0.568778   496A      0.571080   497A      0.572276  
     498A      0.573038   499A      0.574384   500A      0.576318  
     501A      0.579600   502A      0.581395   503A      0.583205  
     504A      0.583845   505A      0.585175   506A      0.587327  
     507A      0.588300   508A      0.589508   509A      0.593040  
     510A      0.594220   511A      0.595271   512A      0.597257  
     513A      0.597990   514A      0.601208   515A      0.603417  
     516A      0.604739   517A      0.605069   518A      0.606267  
     519A      0.608288   520A      0.613324   521A      0.615252  
     522A      0.616547   523A      0.617711   524A      0.618917  
     525A      0.620202   526A      0.623154   527A      0.623576  
     528A      0.624759   529A      0.627044   530A      0.629181  
     531A      0.631161   532A      0.632130   533A      0.634037  
     534A      0.635476   535A      0.636470   536A      0.637587  
     537A      0.637811   538A      0.643124   539A      0.643337  
     540A      0.644389   541A      0.646113   542A      0.648089  
     543A      0.650081   544A      0.650370   545A      0.652509  
     546A      0.655297   547A      0.656912   548A      0.657927  
     549A      0.659650   550A      0.660723   551A      0.661814  
     552A      0.663297   553A      0.663491   554A      0.664790  
     555A      0.666736   556A      0.668617   557A      0.669476  
     558A      0.669720   559A      0.671678   560A      0.673823  
     561A      0.675088   562A      0.678599   563A      0.679639  
     564A      0.681543   565A      0.683074   566A      0.684213  
     567A      0.685177   568A      0.686355   569A      0.687487  
     570A      0.690522   571A      0.692504   572A      0.693692  
     573A      0.695096   574A      0.695793   575A      0.698225  
     576A      0.698401   577A      0.699309   578A      0.701371  
     579A      0.703423   580A      0.703909   581A      0.704693  
     582A      0.705860   583A      0.708346   584A      0.708892  
     585A      0.710992   586A      0.712332   587A      0.714874  
     588A      0.716433   589A      0.717161   590A      0.718991  
     591A      0.721133   592A      0.721684   593A      0.724099  
     594A      0.727095   595A      0.728820   596A      0.729208  
     597A      0.730337   598A      0.731450   599A      0.732243  
     600A      0.733868   601A      0.736308   602A      0.737724  
     603A      0.739060   604A      0.740317   605A      0.741134  
     606A      0.742421   607A      0.744771   608A      0.746068  
     609A      0.747912   610A      0.748666   611A      0.749768  
     612A      0.751604   613A      0.751793   614A      0.753767  
     615A      0.755223   616A      0.758084   617A      0.759509  
     618A      0.761594   619A      0.762700   620A      0.763831  
     621A      0.765523   622A      0.765975   623A      0.766895  
     624A      0.768344   625A      0.771599   626A      0.772148  
     627A      0.773192   628A      0.774790   629A      0.775704  
     630A      0.778375   631A      0.779086   632A      0.780722  
     633A      0.782383   634A      0.783996   635A      0.784417  
     636A      0.786282   637A      0.787450   638A      0.787958  
     639A      0.788734   640A      0.790764   641A      0.792380  
     642A      0.795415   643A      0.795730   644A      0.798328  
     645A      0.799441   646A      0.799893   647A      0.800926  
     648A      0.803033   649A      0.804171   650A      0.806746  
     651A      0.807669   652A      0.809917   653A      0.810591  
     654A      0.811818   655A      0.813484   656A      0.814715  
     657A      0.815696   658A      0.817298   659A      0.820888  
     660A      0.821487   661A      0.821784   662A      0.822461  
     663A      0.824528   664A      0.826821   665A      0.827806  
     666A      0.828295   667A      0.832416   668A      0.833235  
     669A      0.834441   670A      0.836524   671A      0.838885  
     672A      0.839581   673A      0.840757   674A      0.843711  
     675A      0.843996   676A      0.846615   677A      0.847779  
     678A      0.849009   679A      0.851176   680A      0.853492  
     681A      0.854890   682A      0.855743   683A      0.856831  
     684A      0.859475   685A      0.862207   686A      0.862475  
     687A      0.862699   688A      0.864396   689A      0.865810  
     690A      0.867127   691A      0.869220   692A      0.870290  
     693A      0.871076   694A      0.874501   695A      0.875241  
     696A      0.876252   697A      0.876938   698A      0.879004  
     699A      0.880565   700A      0.881199   701A      0.881453  
     702A      0.883323   703A      0.886412   704A      0.887023  
     705A      0.889526   706A      0.890128   707A      0.892528  
     708A      0.893466   709A      0.894461   710A      0.896044  
     711A      0.898485   712A      0.900862   713A      0.900944  
     714A      0.902284   715A      0.905820   716A      0.909432  
     717A      0.910373   718A      0.911237   719A      0.913382  
     720A      0.915565   721A      0.916194   722A      0.916631  
     723A      0.919262   724A      0.920745   725A      0.921790  
     726A      0.922844   727A      0.923424   728A      0.925509  
     729A      0.926779   730A      0.927314   731A      0.928962  
     732A      0.930476   733A      0.932296   734A      0.933850  
     735A      0.934540   736A      0.935939   737A      0.938079  
     738A      0.938780   739A      0.940166   740A      0.942146  
     741A      0.945699   742A      0.947260   743A      0.949927  
     744A      0.951570   745A      0.953233   746A      0.953684  
     747A      0.956204   748A      0.957725   749A      0.958857  
     750A      0.959443   751A      0.960666   752A      0.963175  
     753A      0.965622   754A      0.966468   755A      0.967006  
     756A      0.969158   757A      0.969983   758A      0.971853  
     759A      0.973620   760A      0.977395   761A      0.978641  
     762A      0.979336   763A      0.980703   764A      0.982875  
     765A      0.983207   766A      0.985477   767A      0.986570  
     768A      0.987654   769A      0.992111   770A      0.995186  
     771A      0.996899   772A      0.997505   773A      0.997971  
     774A      1.000629   775A      1.001661   776A      1.003062  
     777A      1.005394   778A      1.006285   779A      1.007984  
     780A      1.009409   781A      1.010537   782A      1.012970  
     783A      1.015191   784A      1.017354   785A      1.020090  
     786A      1.020607   787A      1.021428   788A      1.022200  
     789A      1.024024   790A      1.025254   791A      1.028708  
     792A      1.029556   793A      1.030692   794A      1.034951  
     795A      1.036464   796A      1.037048   797A      1.039434  
     798A      1.040275   799A      1.041513   800A      1.044107  
     801A      1.046656   802A      1.049440   803A      1.051314  
     804A      1.051417   805A      1.051932   806A      1.054169  
     807A      1.055360   808A      1.057456   809A      1.060490  
     810A      1.062434   811A      1.063925   812A      1.066405  
     813A      1.068580   814A      1.070261   815A      1.071194  
     816A      1.074719   817A      1.075441   818A      1.076118  
     819A      1.080032   820A      1.081744   821A      1.082336  
     822A      1.083888   823A      1.086664   824A      1.087625  
     825A      1.090170   826A      1.090534   827A      1.091236  
     828A      1.092903   829A      1.095089   830A      1.096852  
     831A      1.097099   832A      1.100167   833A      1.102560  
     834A      1.104990   835A      1.108153   836A      1.110548  
     837A      1.111231   838A      1.112727   839A      1.114911  
     840A      1.118402   841A      1.118500   842A      1.119688  
     843A      1.121113   844A      1.124494   845A      1.125129  
     846A      1.126541   847A      1.128144   848A      1.128944  
     849A      1.129112   850A      1.130386   851A      1.131583  
     852A      1.132691   853A      1.136424   854A      1.137940  
     855A      1.140501   856A      1.141021   857A      1.141870  
     858A      1.142850   859A      1.146817   860A      1.147787  
     861A      1.150547   862A      1.152385   863A      1.153165  
     864A      1.153267   865A      1.157784   866A      1.159039  
     867A      1.161734   868A      1.164277   869A      1.166967  
     870A      1.168566   871A      1.169285   872A      1.170808  
     873A      1.173342   874A      1.176063   875A      1.177655  
     876A      1.180114   877A      1.180899   878A      1.183709  
     879A      1.186291   880A      1.188056   881A      1.188874  
     882A      1.189900   883A      1.192499   884A      1.197309  
     885A      1.198650   886A      1.199305   887A      1.200163  
     888A      1.201638   889A      1.202202   890A      1.203935  
     891A      1.206430   892A      1.207433   893A      1.208243  
     894A      1.210956   895A      1.212676   896A      1.213734  
     897A      1.217329   898A      1.218613   899A      1.221159  
     900A      1.224686   901A      1.224901   902A      1.228636  
     903A      1.229194   904A      1.230472   905A      1.231950  
     906A      1.232630   907A      1.233506   908A      1.237529  
     909A      1.237916   910A      1.241187   911A      1.241774  
     912A      1.244095   913A      1.246093   914A      1.247072  
     915A      1.248257   916A      1.250356   917A      1.251567  
     918A      1.255767   919A      1.257761   920A      1.257948  
     921A      1.260043   922A      1.261409   923A      1.263779  
     924A      1.267879   925A      1.268719   926A      1.270182  
     927A      1.272315   928A      1.274089   929A      1.274726  
     930A      1.276612   931A      1.278545   932A      1.279536  
     933A      1.281177   934A      1.281560   935A      1.282356  
     936A      1.287676   937A      1.289341   938A      1.289768  
     939A      1.292503   940A      1.294824   941A      1.296429  
     942A      1.298982   943A      1.300574   944A      1.303653  
     945A      1.305073   946A      1.307835   947A      1.309823  
     948A      1.310666   949A      1.313205   950A      1.316145  
     951A      1.317752   952A      1.321777   953A      1.322839  
     954A      1.324277   955A      1.324901   956A      1.327361  
     957A      1.329335   958A      1.333550   959A      1.334830  
     960A      1.337606   961A      1.339120   962A      1.341888  
     963A      1.344170   964A      1.346322   965A      1.350657  
     966A      1.351631   967A      1.354331   968A      1.355931  
     969A      1.357783   970A      1.358599   971A      1.360890  
     972A      1.361877   973A      1.365131   974A      1.366644  
     975A      1.367627   976A      1.370275   977A      1.373667  
     978A      1.374867   979A      1.376816   980A      1.377181  
     981A      1.381207   982A      1.382870   983A      1.387322  
     984A      1.387871   985A      1.390061   986A      1.393370  
     987A      1.395015   988A      1.396977   989A      1.398034  
     990A      1.398708   991A      1.399758   992A      1.403629  
     993A      1.405898   994A      1.409527   995A      1.409843  
     996A      1.411785   997A      1.414181   998A      1.415974  
     999A      1.418833  1000A      1.420827  1001A      1.421247  
    1002A      1.424605  1003A      1.425239  1004A      1.427101  
    1005A      1.429948  1006A      1.430606  1007A      1.433510  
    1008A      1.437029  1009A      1.438762  1010A      1.439211  
    1011A      1.442454  1012A      1.444206  1013A      1.445955  
    1014A      1.449831  1015A      1.452725  1016A      1.452892  
    1017A      1.454712  1018A      1.455409  1019A      1.459557  
    1020A      1.460280  1021A      1.460852  1022A      1.465732  
    1023A      1.467124  1024A      1.468290  1025A      1.472040  
    1026A      1.475641  1027A      1.477351  1028A      1.480552  
    1029A      1.481712  1030A      1.483787  1031A      1.486021  
    1032A      1.486159  1033A      1.489088  1034A      1.491487  
    1035A      1.492035  1036A      1.494763  1037A      1.497420  
    1038A      1.499675  1039A      1.500916  1040A      1.504365  
    1041A      1.505146  1042A      1.506703  1043A      1.510588  
    1044A      1.516398  1045A      1.517081  1046A      1.520126  
    1047A      1.521759  1048A      1.524296  1049A      1.528917  
    1050A      1.530800  1051A      1.532297  1052A      1.532504  
    1053A      1.535074  1054A      1.535341  1055A      1.537991  
    1056A      1.538603  1057A      1.543252  1058A      1.544405  
    1059A      1.546112  1060A      1.548832  1061A      1.549645  
    1062A      1.550170  1063A      1.553644  1064A      1.555321  
    1065A      1.556739  1066A      1.558160  1067A      1.559514  
    1068A      1.562959  1069A      1.564142  1070A      1.567777  
    1071A      1.568547  1072A      1.571003  1073A      1.572383  
    1074A      1.574049  1075A      1.574474  1076A      1.575754  
    1077A      1.580791  1078A      1.582703  1079A      1.582980  
    1080A      1.586022  1081A      1.587466  1082A      1.591328  
    1083A      1.593397  1084A      1.596042  1085A      1.596212  
    1086A      1.597527  1087A      1.601180  1088A      1.601731  
    1089A      1.603872  1090A      1.605023  1091A      1.607898  
    1092A      1.608040  1093A      1.611180  1094A      1.613065  
    1095A      1.617022  1096A      1.618131  1097A      1.620183  
    1098A      1.621654  1099A      1.623908  1100A      1.625623  
    1101A      1.626946  1102A      1.629886  1103A      1.632234  
    1104A      1.635114  1105A      1.635700  1106A      1.636655  
    1107A      1.641836  1108A      1.642756  1109A      1.646279  
    1110A      1.646577  1111A      1.647278  1112A      1.649095  
    1113A      1.649957  1114A      1.655048  1115A      1.655888  
    1116A      1.659783  1117A      1.665803  1118A      1.666021  
    1119A      1.669110  1120A      1.669543  1121A      1.671364  
    1122A      1.675495  1123A      1.677388  1124A      1.678008  
    1125A      1.679512  1126A      1.682181  1127A      1.683509  
    1128A      1.688132  1129A      1.689021  1130A      1.689572  
    1131A      1.692556  1132A      1.695362  1133A      1.695593  
    1134A      1.698082  1135A      1.701190  1136A      1.703578  
    1137A      1.704794  1138A      1.706414  1139A      1.710780  
    1140A      1.713860  1141A      1.716811  1142A      1.717512  
    1143A      1.719228  1144A      1.724394  1145A      1.726611  
    1146A      1.726912  1147A      1.728754  1148A      1.730545  
    1149A      1.731488  1150A      1.732963  1151A      1.736319  
    1152A      1.737427  1153A      1.738583  1154A      1.740524  
    1155A      1.744426  1156A      1.745549  1157A      1.748722  
    1158A      1.750536  1159A      1.751603  1160A      1.753552  
    1161A      1.754882  1162A      1.758217  1163A      1.760139  
    1164A      1.763429  1165A      1.764107  1166A      1.767300  
    1167A      1.768351  1168A      1.771556  1169A      1.773479  
    1170A      1.775486  1171A      1.777685  1172A      1.779952  
    1173A      1.780376  1174A      1.784569  1175A      1.785184  
    1176A      1.786012  1177A      1.786696  1178A      1.791403  
    1179A      1.793839  1180A      1.795573  1181A      1.796477  
    1182A      1.799480  1183A      1.801944  1184A      1.803629  
    1185A      1.805175  1186A      1.806669  1187A      1.807680  
    1188A      1.808667  1189A      1.813113  1190A      1.814762  
    1191A      1.817136  1192A      1.820778  1193A      1.821429  
    1194A      1.824686  1195A      1.825284  1196A      1.825728  
    1197A      1.827314  1198A      1.829130  1199A      1.831737  
    1200A      1.837261  1201A      1.838578  1202A      1.839013  
    1203A      1.839544  1204A      1.840149  1205A      1.843693  
    1206A      1.846246  1207A      1.848495  1208A      1.849573  
    1209A      1.851064  1210A      1.853222  1211A      1.855489  
    1212A      1.857443  1213A      1.859430  1214A      1.859761  
    1215A      1.863399  1216A      1.863680  1217A      1.865680  
    1218A      1.865966  1219A      1.870223  1220A      1.871327  
    1221A      1.873525  1222A      1.876550  1223A      1.877088  
    1224A      1.877938  1225A      1.881488  1226A      1.882630  
    1227A      1.883452  1228A      1.885261  1229A      1.889911  
    1230A      1.891973  1231A      1.892977  1232A      1.893615  
    1233A      1.894334  1234A      1.897435  1235A      1.897775  
    1236A      1.899468  1237A      1.900568  1238A      1.905745  
    1239A      1.907177  1240A      1.911883  1241A      1.913544  
    1242A      1.914179  1243A      1.915326  1244A      1.916113  
    1245A      1.917394  1246A      1.921264  1247A      1.922044  
    1248A      1.924053  1249A      1.925739  1250A      1.930009  
    1251A      1.930514  1252A      1.932668  1253A      1.933436  
    1254A      1.933819  1255A      1.936156  1256A      1.937174  
    1257A      1.940403  1258A      1.941688  1259A      1.944796  
    1260A      1.947593  1261A      1.949607  1262A      1.952586  
    1263A      1.953456  1264A      1.954615  1265A      1.955257  
    1266A      1.956268  1267A      1.959238  1268A      1.962778  
    1269A      1.965379  1270A      1.967926  1271A      1.968971  
    1272A      1.969373  1273A      1.971407  1274A      1.973062  
    1275A      1.975704  1276A      1.976690  1277A      1.978134  
    1278A      1.979232  1279A      1.980469  1280A      1.982386  
    1281A      1.983650  1282A      1.986767  1283A      1.989575  
    1284A      1.989585  1285A      1.993059  1286A      1.995288  
    1287A      1.995553  1288A      1.998103  1289A      1.999691  
    1290A      2.000978  1291A      2.003311  1292A      2.004921  
    1293A      2.008224  1294A      2.009135  1295A      2.009192  
    1296A      2.012366  1297A      2.016816  1298A      2.019388  
    1299A      2.019832  1300A      2.021541  1301A      2.022152  
    1302A      2.024561  1303A      2.025660  1304A      2.026974  
    1305A      2.027296  1306A      2.032023  1307A      2.034165  
    1308A      2.035738  1309A      2.038438  1310A      2.038915  
    1311A      2.040900  1312A      2.042461  1313A      2.046371  
    1314A      2.046653  1315A      2.049570  1316A      2.052670  
    1317A      2.053469  1318A      2.055185  1319A      2.058176  
    1320A      2.060210  1321A      2.063899  1322A      2.064078  
    1323A      2.066903  1324A      2.072072  1325A      2.073065  
    1326A      2.073262  1327A      2.074252  1328A      2.075483  
    1329A      2.078008  1330A      2.078204  1331A      2.081112  
    1332A      2.083354  1333A      2.083893  1334A      2.087240  
    1335A      2.087785  1336A      2.089637  1337A      2.090032  
    1338A      2.093270  1339A      2.094563  1340A      2.096857  
    1341A      2.099078  1342A      2.100238  1343A      2.102444  
    1344A      2.102799  1345A      2.106854  1346A      2.107687  
    1347A      2.108858  1348A      2.112428  1349A      2.114746  
    1350A      2.115360  1351A      2.117074  1352A      2.117918  
    1353A      2.119191  1354A      2.122955  1355A      2.124574  
    1356A      2.125270  1357A      2.127744  1358A      2.129127  
    1359A      2.132664  1360A      2.133657  1361A      2.135583  
    1362A      2.137914  1363A      2.140237  1364A      2.141906  
    1365A      2.143239  1366A      2.145031  1367A      2.145866  
    1368A      2.148167  1369A      2.149403  1370A      2.151918  
    1371A      2.154093  1372A      2.154363  1373A      2.155110  
    1374A      2.156553  1375A      2.159709  1376A      2.162761  
    1377A      2.166179  1378A      2.167744  1379A      2.167981  
    1380A      2.171758  1381A      2.172807  1382A      2.173831  
    1383A      2.177155  1384A      2.178366  1385A      2.179229  
    1386A      2.182642  1387A      2.183607  1388A      2.184381  
    1389A      2.184511  1390A      2.187058  1391A      2.187602  
    1392A      2.190028  1393A      2.190588  1394A      2.193418  
    1395A      2.196346  1396A      2.198126  1397A      2.200094  
    1398A      2.201760  1399A      2.202724  1400A      2.203202  
    1401A      2.205806  1402A      2.207358  1403A      2.209034  
    1404A      2.210681  1405A      2.215432  1406A      2.215850  
    1407A      2.216770  1408A      2.218712  1409A      2.219092  
    1410A      2.221471  1411A      2.223063  1412A      2.224583  
    1413A      2.227220  1414A      2.228684  1415A      2.230235  
    1416A      2.230956  1417A      2.232794  1418A      2.234857  
    1419A      2.237119  1420A      2.237583  1421A      2.239553  
    1422A      2.239983  1423A      2.242228  1424A      2.242929  
    1425A      2.247847  1426A      2.248683  1427A      2.250884  
    1428A      2.252365  1429A      2.255176  1430A      2.255402  
    1431A      2.258083  1432A      2.259695  1433A      2.261014  
    1434A      2.261466  1435A      2.265526  1436A      2.266844  
    1437A      2.267515  1438A      2.268149  1439A      2.269502  
    1440A      2.271944  1441A      2.273052  1442A      2.273651  
    1443A      2.274185  1444A      2.275212  1445A      2.275984  
    1446A      2.280347  1447A      2.280950  1448A      2.284247  
    1449A      2.285765  1450A      2.287757  1451A      2.292308  
    1452A      2.294050  1453A      2.295084  1454A      2.296683  
    1455A      2.297894  1456A      2.300412  1457A      2.303123  
    1458A      2.304376  1459A      2.307132  1460A      2.308068  
    1461A      2.310931  1462A      2.313347  1463A      2.313935  
    1464A      2.315587  1465A      2.318737  1466A      2.320667  
    1467A      2.321978  1468A      2.325653  1469A      2.325853  
    1470A      2.328609  1471A      2.333447  1472A      2.333504  
    1473A      2.334568  1474A      2.334920  1475A      2.339123  
    1476A      2.339738  1477A      2.340119  1478A      2.344244  
    1479A      2.347819  1480A      2.350110  1481A      2.352503  
    1482A      2.353608  1483A      2.356337  1484A      2.358670  
    1485A      2.358961  1486A      2.359151  1487A      2.364943  
    1488A      2.366408  1489A      2.367611  1490A      2.367832  
    1491A      2.368656  1492A      2.371562  1493A      2.372034  
    1494A      2.373289  1495A      2.375832  1496A      2.378417  
    1497A      2.379207  1498A      2.380599  1499A      2.383163  
    1500A      2.384411  1501A      2.388369  1502A      2.389321  
    1503A      2.390981  1504A      2.391941  1505A      2.394121  
    1506A      2.396423  1507A      2.397895  1508A      2.402780  
    1509A      2.406626  1510A      2.407875  1511A      2.410818  
    1512A      2.414541  1513A      2.415607  1514A      2.416945  
    1515A      2.418723  1516A      2.420827  1517A      2.421488  
    1518A      2.422680  1519A      2.424660  1520A      2.425933  
    1521A      2.427722  1522A      2.430683  1523A      2.432460  
    1524A      2.435730  1525A      2.439000  1526A      2.440265  
    1527A      2.442896  1528A      2.448312  1529A      2.450138  
    1530A      2.452311  1531A      2.456366  1532A      2.456678  
    1533A      2.458043  1534A      2.459170  1535A      2.462617  
    1536A      2.463338  1537A      2.463846  1538A      2.468040  
    1539A      2.471816  1540A      2.472863  1541A      2.475998  
    1542A      2.477807  1543A      2.478849  1544A      2.481810  
    1545A      2.482420  1546A      2.483613  1547A      2.487088  
    1548A      2.488759  1549A      2.492222  1550A      2.493373  
    1551A      2.495550  1552A      2.496884  1553A      2.497034  
    1554A      2.499815  1555A      2.504894  1556A      2.509666  
    1557A      2.509876  1558A      2.510946  1559A      2.512321  
    1560A      2.515625  1561A      2.520195  1562A      2.521836  
    1563A      2.523763  1564A      2.527820  1565A      2.529601  
    1566A      2.529863  1567A      2.532033  1568A      2.534987  
    1569A      2.536705  1570A      2.537564  1571A      2.539058  
    1572A      2.541938  1573A      2.543394  1574A      2.545306  
    1575A      2.548285  1576A      2.552145  1577A      2.554995  
    1578A      2.557545  1579A      2.559859  1580A      2.560600  
    1581A      2.561057  1582A      2.563384  1583A      2.565248  
    1584A      2.567064  1585A      2.569177  1586A      2.574030  
    1587A      2.575425  1588A      2.577553  1589A      2.578091  
    1590A      2.582048  1591A      2.584333  1592A      2.589103  
    1593A      2.591696  1594A      2.592736  1595A      2.594877  
    1596A      2.597566  1597A      2.599458  1598A      2.604161  
    1599A      2.606187  1600A      2.609081  1601A      2.610789  
    1602A      2.614269  1603A      2.615870  1604A      2.617279  
    1605A      2.618497  1606A      2.625007  1607A      2.627375  
    1608A      2.627708  1609A      2.633658  1610A      2.635179  
    1611A      2.637177  1612A      2.638056  1613A      2.640026  
    1614A      2.643194  1615A      2.643454  1616A      2.647701  
    1617A      2.649898  1618A      2.651845  1619A      2.652558  
    1620A      2.657059  1621A      2.658908  1622A      2.662196  
    1623A      2.664439  1624A      2.668079  1625A      2.668489  
    1626A      2.671219  1627A      2.673286  1628A      2.676205  
    1629A      2.679191  1630A      2.682860  1631A      2.683739  
    1632A      2.690256  1633A      2.690827  1634A      2.692150  
    1635A      2.694210  1636A      2.695677  1637A      2.697198  
    1638A      2.697561  1639A      2.701405  1640A      2.706816  
    1641A      2.708695  1642A      2.711020  1643A      2.712081  
    1644A      2.713397  1645A      2.718001  1646A      2.720091  
    1647A      2.724911  1648A      2.726111  1649A      2.727354  
    1650A      2.729666  1651A      2.734396  1652A      2.736117  
    1653A      2.739739  1654A      2.742489  1655A      2.748594  
    1656A      2.748940  1657A      2.751549  1658A      2.754499  
    1659A      2.758554  1660A      2.760671  1661A      2.761757  
    1662A      2.763749  1663A      2.765795  1664A      2.768155  
    1665A      2.769278  1666A      2.771629  1667A      2.774853  
    1668A      2.776920  1669A      2.780439  1670A      2.785694  
    1671A      2.787878  1672A      2.789266  1673A      2.793415  
    1674A      2.797382  1675A      2.799198  1676A      2.800926  
    1677A      2.803290  1678A      2.804266  1679A      2.808155  
    1680A      2.808682  1681A      2.811647  1682A      2.813144  
    1683A      2.816656  1684A      2.818259  1685A      2.820378  
    1686A      2.822437  1687A      2.826024  1688A      2.828078  
    1689A      2.830925  1690A      2.834346  1691A      2.835720  
    1692A      2.838228  1693A      2.840116  1694A      2.842328  
    1695A      2.848808  1696A      2.849226  1697A      2.853856  
    1698A      2.854404  1699A      2.856655  1700A      2.857737  
    1701A      2.860915  1702A      2.868322  1703A      2.874033  
    1704A      2.874744  1705A      2.876030  1706A      2.877751  
    1707A      2.878029  1708A      2.881016  1709A      2.883759  
    1710A      2.887650  1711A      2.890706  1712A      2.894460  
    1713A      2.895949  1714A      2.897986  1715A      2.899278  
    1716A      2.901792  1717A      2.903580  1718A      2.907460  
    1719A      2.910899  1720A      2.913478  1721A      2.913963  
    1722A      2.914849  1723A      2.916904  1724A      2.921219  
    1725A      2.922606  1726A      2.923015  1727A      2.924019  
    1728A      2.930635  1729A      2.932777  1730A      2.934265  
    1731A      2.934568  1732A      2.937303  1733A      2.942179  
    1734A      2.943744  1735A      2.946893  1736A      2.948001  
    1737A      2.950191  1738A      2.952654  1739A      2.958136  
    1740A      2.958857  1741A      2.959356  1742A      2.960297  
    1743A      2.963451  1744A      2.969620  1745A      2.970357  
    1746A      2.971095  1747A      2.977609  1748A      2.979440  
    1749A      2.982767  1750A      2.986567  1751A      2.987859  
    1752A      2.992764  1753A      2.994845  1754A      2.997528  
    1755A      2.997970  1756A      3.002658  1757A      3.003543  
    1758A      3.005337  1759A      3.008490  1760A      3.010140  
    1761A      3.016338  1762A      3.017031  1763A      3.021597  
    1764A      3.025893  1765A      3.028435  1766A      3.029446  
    1767A      3.031020  1768A      3.035806  1769A      3.036971  
    1770A      3.037802  1771A      3.041459  1772A      3.042445  
    1773A      3.043546  1774A      3.047006  1775A      3.048416  
    1776A      3.051125  1777A      3.052446  1778A      3.054926  
    1779A      3.057075  1780A      3.059357  1781A      3.061428  
    1782A      3.061807  1783A      3.063028  1784A      3.064728  
    1785A      3.068658  1786A      3.071482  1787A      3.074914  
    1788A      3.077626  1789A      3.079199  1790A      3.080593  
    1791A      3.084056  1792A      3.085908  1793A      3.087397  
    1794A      3.088892  1795A      3.092050  1796A      3.094225  
    1797A      3.095660  1798A      3.097642  1799A      3.101105  
    1800A      3.101961  1801A      3.104489  1802A      3.105812  
    1803A      3.111205  1804A      3.113944  1805A      3.117365  
    1806A      3.120019  1807A      3.120180  1808A      3.121892  
    1809A      3.126347  1810A      3.128341  1811A      3.131003  
    1812A      3.132195  1813A      3.135891  1814A      3.139167  
    1815A      3.143911  1816A      3.145571  1817A      3.146835  
    1818A      3.149061  1819A      3.150400  1820A      3.151027  
    1821A      3.154327  1822A      3.155845  1823A      3.160104  
    1824A      3.161350  1825A      3.166389  1826A      3.171341  
    1827A      3.173987  1828A      3.174929  1829A      3.177260  
    1830A      3.178776  1831A      3.180312  1832A      3.181919  
    1833A      3.187208  1834A      3.192736  1835A      3.193897  
    1836A      3.196711  1837A      3.199368  1838A      3.201015  
    1839A      3.203474  1840A      3.203944  1841A      3.203978  
    1842A      3.210486  1843A      3.213086  1844A      3.214065  
    1845A      3.217258  1846A      3.225299  1847A      3.227748  
    1848A      3.228480  1849A      3.230270  1850A      3.233440  
    1851A      3.235494  1852A      3.240077  1853A      3.242494  
    1854A      3.244772  1855A      3.249373  1856A      3.250084  
    1857A      3.254538  1858A      3.258907  1859A      3.264417  
    1860A      3.266231  1861A      3.266609  1862A      3.268587  
    1863A      3.269942  1864A      3.274197  1865A      3.275981  
    1866A      3.277210  1867A      3.280275  1868A      3.287134  
    1869A      3.289814  1870A      3.291628  1871A      3.292542  
    1872A      3.297507  1873A      3.300276  1874A      3.302083  
    1875A      3.305514  1876A      3.307996  1877A      3.311412  
    1878A      3.311785  1879A      3.316094  1880A      3.318439  
    1881A      3.320216  1882A      3.321139  1883A      3.323286  
    1884A      3.326520  1885A      3.328836  1886A      3.332872  
    1887A      3.336147  1888A      3.337208  1889A      3.339549  
    1890A      3.341660  1891A      3.344154  1892A      3.347251  
    1893A      3.354527  1894A      3.355799  1895A      3.356765  
    1896A      3.360014  1897A      3.362479  1898A      3.363402  
    1899A      3.369237  1900A      3.369521  1901A      3.373268  
    1902A      3.375555  1903A      3.377514  1904A      3.378102  
    1905A      3.382853  1906A      3.387536  1907A      3.393909  
    1908A      3.396250  1909A      3.398192  1910A      3.400213  
    1911A      3.401995  1912A      3.405515  1913A      3.413679  
    1914A      3.418165  1915A      3.419448  1916A      3.421152  
    1917A      3.421640  1918A      3.425477  1919A      3.427701  
    1920A      3.429762  1921A      3.431956  1922A      3.432324  
    1923A      3.437934  1924A      3.440208  1925A      3.446404  
    1926A      3.448772  1927A      3.451478  1928A      3.454307  
    1929A      3.457268  1930A      3.457984  1931A      3.461379  
    1932A      3.465633  1933A      3.468393  1934A      3.469327  
    1935A      3.471494  1936A      3.472179  1937A      3.476199  
    1938A      3.479655  1939A      3.485170  1940A      3.487891  
    1941A      3.490501  1942A      3.498303  1943A      3.499095  
    1944A      3.499716  1945A      3.503895  1946A      3.506409  
    1947A      3.506705  1948A      3.512818  1949A      3.514054  
    1950A      3.515635  1951A      3.521345  1952A      3.523406  
    1953A      3.527694  1954A      3.530796  1955A      3.530874  
    1956A      3.535182  1957A      3.539819  1958A      3.541328  
    1959A      3.542611  1960A      3.546873  1961A      3.547717  
    1962A      3.552466  1963A      3.554767  1964A      3.557741  
    1965A      3.562008  1966A      3.563697  1967A      3.565877  
    1968A      3.568134  1969A      3.573138  1970A      3.578416  
    1971A      3.582121  1972A      3.585912  1973A      3.587359  
    1974A      3.592998  1975A      3.595736  1976A      3.597350  
    1977A      3.599628  1978A      3.601903  1979A      3.604718  
    1980A      3.608183  1981A      3.610372  1982A      3.611590  
    1983A      3.613515  1984A      3.618433  1985A      3.620674  
    1986A      3.625458  1987A      3.628837  1988A      3.633334  
    1989A      3.634224  1990A      3.637379  1991A      3.639246  
    1992A      3.647230  1993A      3.649507  1994A      3.655515  
    1995A      3.659107  1996A      3.660218  1997A      3.661127  
    1998A      3.670130  1999A      3.671879  2000A      3.673684  
    2001A      3.679696  2002A      3.683793  2003A      3.685986  
    2004A      3.687806  2005A      3.688812  2006A      3.693258  
    2007A      3.695231  2008A      3.699559  2009A      3.702988  
    2010A      3.704427  2011A      3.709393  2012A      3.711158  
    2013A      3.714305  2014A      3.719361  2015A      3.719572  
    2016A      3.723547  2017A      3.725618  2018A      3.728612  
    2019A      3.732094  2020A      3.735411  2021A      3.738051  
    2022A      3.741275  2023A      3.742493  2024A      3.744231  
    2025A      3.749883  2026A      3.751433  2027A      3.753871  
    2028A      3.756210  2029A      3.757698  2030A      3.761517  
    2031A      3.762618  2032A      3.770277  2033A      3.774444  
    2034A      3.776650  2035A      3.782018  2036A      3.783831  
    2037A      3.785841  2038A      3.791824  2039A      3.793063  
    2040A      3.799946  2041A      3.806451  2042A      3.806899  
    2043A      3.808326  2044A      3.812623  2045A      3.814338  
    2046A      3.816356  2047A      3.822107  2048A      3.823274  
    2049A      3.824217  2050A      3.829299  2051A      3.834394  
    2052A      3.835197  2053A      3.835688  2054A      3.839431  
    2055A      3.842407  2056A      3.847726  2057A      3.848991  
    2058A      3.852749  2059A      3.860752  2060A      3.861851  
    2061A      3.867096  2062A      3.869631  2063A      3.871754  
    2064A      3.877723  2065A      3.883240  2066A      3.884455  
    2067A      3.887367  2068A      3.894967  2069A      3.896356  
    2070A      3.897258  2071A      3.897734  2072A      3.902828  
    2073A      3.907350  2074A      3.908653  2075A      3.912695  
    2076A      3.914289  2077A      3.915227  2078A      3.918524  
    2079A      3.921820  2080A      3.924160  2081A      3.928482  
    2082A      3.929774  2083A      3.931906  2084A      3.933692  
    2085A      3.937445  2086A      3.937751  2087A      3.944623  
    2088A      3.946524  2089A      3.948103  2090A      3.952838  
    2091A      3.954311  2092A      3.958196  2093A      3.959714  
    2094A      3.963009  2095A      3.965095  2096A      3.967494  
    2097A      3.970673  2098A      3.977843  2099A      3.981879  
    2100A      3.987512  2101A      3.988076  2102A      3.991506  
    2103A      3.993353  2104A      4.000472  2105A      4.002035  
    2106A      4.003371  2107A      4.008389  2108A      4.009060  
    2109A      4.012394  2110A      4.015998  2111A      4.016669  
    2112A      4.019384  2113A      4.023464  2114A      4.023700  
    2115A      4.031414  2116A      4.033280  2117A      4.033909  
    2118A      4.034918  2119A      4.037487  2120A      4.040589  
    2121A      4.041296  2122A      4.046583  2123A      4.048945  
    2124A      4.051370  2125A      4.054238  2126A      4.056677  
    2127A      4.058262  2128A      4.061655  2129A      4.065989  
    2130A      4.067962  2131A      4.073676  2132A      4.078206  
    2133A      4.084119  2134A      4.084528  2135A      4.087391  
    2136A      4.089326  2137A      4.093337  2138A      4.096876  
    2139A      4.098374  2140A      4.101249  2141A      4.101556  
    2142A      4.107746  2143A      4.109294  2144A      4.111083  
    2145A      4.115965  2146A      4.117795  2147A      4.120811  
    2148A      4.122907  2149A      4.124606  2150A      4.125691  
    2151A      4.129222  2152A      4.129482  2153A      4.132568  
    2154A      4.135211  2155A      4.137499  2156A      4.138476  
    2157A      4.140573  2158A      4.147511  2159A      4.148312  
    2160A      4.149152  2161A      4.153942  2162A      4.157165  
    2163A      4.164029  2164A      4.168695  2165A      4.170948  
    2166A      4.173784  2167A      4.177082  2168A      4.179317  
    2169A      4.180069  2170A      4.183069  2171A      4.186715  
    2172A      4.192149  2173A      4.196631  2174A      4.200996  
    2175A      4.204274  2176A      4.204943  2177A      4.208762  
    2178A      4.212119  2179A      4.214445  2180A      4.218997  
    2181A      4.222707  2182A      4.224279  2183A      4.225366  
    2184A      4.227660  2185A      4.229888  2186A      4.229984  
    2187A      4.236562  2188A      4.238713  2189A      4.246598  
    2190A      4.249105  2191A      4.249844  2192A      4.252329  
    2193A      4.254292  2194A      4.256852  2195A      4.265428  
    2196A      4.267226  2197A      4.269449  2198A      4.270761  
    2199A      4.272941  2200A      4.276339  2201A      4.279005  
    2202A      4.279669  2203A      4.282952  2204A      4.285743  
    2205A      4.288166  2206A      4.289661  2207A      4.292095  
    2208A      4.297025  2209A      4.297596  2210A      4.301544  
    2211A      4.305385  2212A      4.310783  2213A      4.314374  
    2214A      4.316705  2215A      4.319133  2216A      4.322217  
    2217A      4.322937  2218A      4.324432  2219A      4.329138  
    2220A      4.330519  2221A      4.331541  2222A      4.334804  
    2223A      4.339148  2224A      4.341803  2225A      4.345393  
    2226A      4.353631  2227A      4.353813  2228A      4.360636  
    2229A      4.362004  2230A      4.362584  2231A      4.364060  
    2232A      4.370547  2233A      4.375423  2234A      4.377074  
    2235A      4.379625  2236A      4.382685  2237A      4.387036  
    2238A      4.387824  2239A      4.391311  2240A      4.394554  
    2241A      4.397217  2242A      4.399770  2243A      4.402890  
    2244A      4.407341  2245A      4.412363  2246A      4.416133  
    2247A      4.418667  2248A      4.420293  2249A      4.422488  
    2250A      4.425230  2251A      4.431254  2252A      4.434443  
    2253A      4.441032  2254A      4.444314  2255A      4.445687  
    2256A      4.447072  2257A      4.449387  2258A      4.450512  
    2259A      4.450599  2260A      4.452014  2261A      4.456583  
    2262A      4.460955  2263A      4.464463  2264A      4.470649  
    2265A      4.474884  2266A      4.478604  2267A      4.479150  
    2268A      4.479763  2269A      4.481614  2270A      4.484221  
    2271A      4.486501  2272A      4.491427  2273A      4.492251  
    2274A      4.492987  2275A      4.495588  2276A      4.498422  
    2277A      4.504275  2278A      4.504828  2279A      4.509153  
    2280A      4.510600  2281A      4.514198  2282A      4.517434  
    2283A      4.520138  2284A      4.522335  2285A      4.527469  
    2286A      4.531591  2287A      4.532205  2288A      4.534984  
    2289A      4.537671  2290A      4.540881  2291A      4.544343  
    2292A      4.544852  2293A      4.546543  2294A      4.549623  
    2295A      4.550366  2296A      4.553047  2297A      4.555933  
    2298A      4.561241  2299A      4.563592  2300A      4.568499  
    2301A      4.569303  2302A      4.572484  2303A      4.575247  
    2304A      4.576474  2305A      4.579989  2306A      4.584194  
    2307A      4.588221  2308A      4.588439  2309A      4.591035  
    2310A      4.593657  2311A      4.596510  2312A      4.599481  
    2313A      4.601003  2314A      4.604703  2315A      4.606437  
    2316A      4.610222  2317A      4.611526  2318A      4.613134  
    2319A      4.614515  2320A      4.618273  2321A      4.621286  
    2322A      4.624098  2323A      4.628705  2324A      4.630759  
    2325A      4.633358  2326A      4.637334  2327A      4.639134  
    2328A      4.640600  2329A      4.645250  2330A      4.647368  
    2331A      4.650463  2332A      4.652219  2333A      4.653628  
    2334A      4.654081  2335A      4.655016  2336A      4.658633  
    2337A      4.663866  2338A      4.664669  2339A      4.667164  
    2340A      4.670793  2341A      4.674317  2342A      4.674529  
    2343A      4.676671  2344A      4.678809  2345A      4.681783  
    2346A      4.684715  2347A      4.687250  2348A      4.689754  
    2349A      4.691683  2350A      4.696779  2351A      4.698572  
    2352A      4.701240  2353A      4.703478  2354A      4.706081  
    2355A      4.714985  2356A      4.718734  2357A      4.718974  
    2358A      4.724228  2359A      4.725664  2360A      4.730362  
    2361A      4.731924  2362A      4.736965  2363A      4.737731  
    2364A      4.739423  2365A      4.740413  2366A      4.742621  
    2367A      4.745341  2368A      4.749109  2369A      4.750752  
    2370A      4.751298  2371A      4.755025  2372A      4.757300  
    2373A      4.761299  2374A      4.765309  2375A      4.766055  
    2376A      4.770384  2377A      4.771885  2378A      4.777291  
    2379A      4.779067  2380A      4.781736  2381A      4.784097  
    2382A      4.784615  2383A      4.787482  2384A      4.791503  
    2385A      4.795150  2386A      4.800400  2387A      4.803979  
    2388A      4.804382  2389A      4.808984  2390A      4.810848  
    2391A      4.816598  2392A      4.818137  2393A      4.822736  
    2394A      4.826321  2395A      4.827240  2396A      4.829825  
    2397A      4.832459  2398A      4.835756  2399A      4.836026  
    2400A      4.837513  2401A      4.844509  2402A      4.847461  
    2403A      4.852846  2404A      4.856297  2405A      4.860282  
    2406A      4.865846  2407A      4.866786  2408A      4.869894  
    2409A      4.875573  2410A      4.876558  2411A      4.878336  
    2412A      4.881931  2413A      4.886097  2414A      4.890041  
    2415A      4.891244  2416A      4.896619  2417A      4.900913  
    2418A      4.903117  2419A      4.909757  2420A      4.913130  
    2421A      4.917719  2422A      4.918937  2423A      4.925111  
    2424A      4.927356  2425A      4.931090  2426A      4.934327  
    2427A      4.936621  2428A      4.938033  2429A      4.939259  
    2430A      4.943698  2431A      4.946146  2432A      4.949097  
    2433A      4.951204  2434A      4.960811  2435A      4.962427  
    2436A      4.964425  2437A      4.967505  2438A      4.972924  
    2439A      4.975075  2440A      4.982523  2441A      4.984725  
    2442A      4.986585  2443A      4.991404  2444A      4.991886  
    2445A      4.997560  2446A      5.000171  2447A      5.003191  
    2448A      5.007971  2449A      5.008442  2450A      5.012200  
    2451A      5.016247  2452A      5.019960  2453A      5.022229  
    2454A      5.023834  2455A      5.028952  2456A      5.033119  
    2457A      5.035536  2458A      5.036662  2459A      5.041860  
    2460A      5.047211  2461A      5.054387  2462A      5.055758  
    2463A      5.056625  2464A      5.059297  2465A      5.065642  
    2466A      5.068654  2467A      5.073799  2468A      5.074425  
    2469A      5.078700  2470A      5.082017  2471A      5.084152  
    2472A      5.087454  2473A      5.094080  2474A      5.096956  
    2475A      5.106553  2476A      5.109692  2477A      5.110992  
    2478A      5.114490  2479A      5.117577  2480A      5.121660  
    2481A      5.127701  2482A      5.130683  2483A      5.136741  
    2484A      5.147734  2485A      5.149460  2486A      5.150721  
    2487A      5.153591  2488A      5.156559  2489A      5.169794  
    2490A      5.172038  2491A      5.174149  2492A      5.180409  
    2493A      5.182580  2494A      5.189102  2495A      5.190898  
    2496A      5.192258  2497A      5.200076  2498A      5.205112  
    2499A      5.206889  2500A      5.209318  2501A      5.218306  
    2502A      5.222553  2503A      5.223765  2504A      5.229975  
    2505A      5.230779  2506A      5.237796  2507A      5.242433  
    2508A      5.246321  2509A      5.249148  2510A      5.252878  
    2511A      5.254240  2512A      5.262725  2513A      5.270862  
    2514A      5.273381  2515A      5.273729  2516A      5.279076  
    2517A      5.282763  2518A      5.286492  2519A      5.291135  
    2520A      5.294703  2521A      5.296868  2522A      5.300461  
    2523A      5.301669  2524A      5.312185  2525A      5.313392  
    2526A      5.320123  2527A      5.321929  2528A      5.325140  
    2529A      5.335390  2530A      5.342530  2531A      5.349244  
    2532A      5.355123  2533A      5.360678  2534A      5.362915  
    2535A      5.370319  2536A      5.376782  2537A      5.379435  
    2538A      5.391224  2539A      5.396285  2540A      5.400927  
    2541A      5.401791  2542A      5.404488  2543A      5.411073  
    2544A      5.422445  2545A      5.423835  2546A      5.426419  
    2547A      5.431951  2548A      5.433973  2549A      5.445453  
    2550A      5.446655  2551A      5.451558  2552A      5.454964  
    2553A      5.458449  2554A      5.464671  2555A      5.465768  
    2556A      5.470709  2557A      5.481795  2558A      5.496457  
    2559A      5.500576  2560A      5.511144  2561A      5.518066  
    2562A      5.520193  2563A      5.529615  2564A      5.532666  
    2565A      5.538084  2566A      5.541602  2567A      5.546872  
    2568A      5.547896  2569A      5.551692  2570A      5.563421  
    2571A      5.574167  2572A      5.580981  2573A      5.588780  
    2574A      5.590148  2575A      5.592258  2576A      5.596520  
    2577A      5.601652  2578A      5.611040  2579A      5.613083  
    2580A      5.620241  2581A      5.622198  2582A      5.627604  
    2583A      5.629030  2584A      5.632165  2585A      5.636302  
    2586A      5.645983  2587A      5.647504  2588A      5.649430  
    2589A      5.658301  2590A      5.660129  2591A      5.670658  
    2592A      5.674549  2593A      5.684642  2594A      5.689235  
    2595A      5.690456  2596A      5.694209  2597A      5.703684  
    2598A      5.713741  2599A      5.714798  2600A      5.715214  
    2601A      5.726058  2602A      5.728845  2603A      5.733016  
    2604A      5.738700  2605A      5.744780  2606A      5.758759  
    2607A      5.764363  2608A      5.765485  2609A      5.766855  
    2610A      5.776666  2611A      5.784066  2612A      5.786809  
    2613A      5.787603  2614A      5.791740  2615A      5.806805  
    2616A      5.808539  2617A      5.812496  2618A      5.818254  
    2619A      5.827456  2620A      5.832223  2621A      5.836321  
    2622A      5.838116  2623A      5.839793  2624A      5.844753  
    2625A      5.851300  2626A      5.863728  2627A      5.866444  
    2628A      5.867209  2629A      5.876272  2630A      5.882398  
    2631A      5.888360  2632A      5.895647  2633A      5.903094  
    2634A      5.905828  2635A      5.919926  2636A      5.928556  
    2637A      5.930585  2638A      5.935520  2639A      5.941974  
    2640A      5.947140  2641A      5.952468  2642A      5.970650  
    2643A      5.978979  2644A      5.986972  2645A      5.989210  
    2646A      5.989770  2647A      5.996922  2648A      6.005456  
    2649A      6.012338  2650A      6.013862  2651A      6.022861  
    2652A      6.027490  2653A      6.042671  2654A      6.046839  
    2655A      6.048978  2656A      6.066132  2657A      6.071569  
    2658A      6.085087  2659A      6.096212  2660A      6.102158  
    2661A      6.108751  2662A      6.124605  2663A      6.127295  
    2664A      6.136166  2665A      6.152298  2666A      6.152450  
    2667A      6.161188  2668A      6.179271  2669A      6.181024  
    2670A      6.198388  2671A      6.205397  2672A      6.217440  
    2673A      6.225558  2674A      6.238455  2675A      6.246772  
    2676A      6.256166  2677A      6.272096  2678A      6.294206  
    2679A      6.296375  2680A      6.302083  2681A      6.309782  
    2682A      6.325627  2683A      6.328283  2684A      6.342308  
    2685A      6.346248  2686A      6.350409  2687A      6.356124  
    2688A      6.361128  2689A      6.370476  2690A      6.383041  
    2691A      6.384700  2692A      6.390303  2693A      6.392363  
    2694A      6.408803  2695A      6.416277  2696A      6.418214  
    2697A      6.418594  2698A      6.421811  2699A      6.428365  
    2700A      6.438329  2701A      6.448403  2702A      6.449762  
    2703A      6.465501  2704A      6.473293  2705A      6.475170  
    2706A      6.476145  2707A      6.477550  2708A      6.493633  
    2709A      6.503702  2710A      6.507308  2711A      6.511027  
    2712A      6.513088  2713A      6.525693  2714A      6.531886  
    2715A      6.533635  2716A      6.542713  2717A      6.547967  
    2718A      6.554261  2719A      6.558795  2720A      6.564806  
    2721A      6.572120  2722A      6.575977  2723A      6.582103  
    2724A      6.588572  2725A      6.592984  2726A      6.593258  
    2727A      6.607282  2728A      6.609540  2729A      6.609873  
    2730A      6.622786  2731A      6.625774  2732A      6.627220  
    2733A      6.629343  2734A      6.640060  2735A      6.649436  
    2736A      6.657604  2737A      6.665915  2738A      6.670141  
    2739A      6.675240  2740A      6.679364  2741A      6.684759  
    2742A      6.685239  2743A      6.687509  2744A      6.694304  
    2745A      6.696773  2746A      6.707133  2747A      6.711252  
    2748A      6.722398  2749A      6.726085  2750A      6.728217  
    2751A      6.742946  2752A      6.745009  2753A      6.750753  
    2754A      6.752269  2755A      6.764417  2756A      6.766700  
    2757A      6.778138  2758A      6.778466  2759A      6.781643  
    2760A      6.783056  2761A      6.786532  2762A      6.791577  
    2763A      6.795456  2764A      6.802557  2765A      6.804632  
    2766A      6.804913  2767A      6.817377  2768A      6.820254  
    2769A      6.828726  2770A      6.832399  2771A      6.838061  
    2772A      6.845648  2773A      6.850725  2774A      6.854894  
    2775A      6.862056  2776A      6.869263  2777A      6.869305  
    2778A      6.874687  2779A      6.877678  2780A      6.886231  
    2781A      6.891741  2782A      6.894043  2783A      6.896196  
    2784A      6.898110  2785A      6.901983  2786A      6.909678  
    2787A      6.912327  2788A      6.915775  2789A      6.918796  
    2790A      6.921593  2791A      6.926162  2792A      6.931109  
    2793A      6.931233  2794A      6.939633  2795A      6.942623  
    2796A      6.947055  2797A      6.952058  2798A      6.953810  
    2799A      6.960051  2800A      6.961277  2801A      6.963006  
    2802A      6.972439  2803A      6.973210  2804A      6.975877  
    2805A      6.977953  2806A      6.985016  2807A      6.992646  
    2808A      6.993103  2809A      6.994180  2810A      6.995728  
    2811A      6.996304  2812A      7.001304  2813A      7.003297  
    2814A      7.011416  2815A      7.013266  2816A      7.019937  
    2817A      7.020364  2818A      7.026531  2819A      7.030580  
    2820A      7.035378  2821A      7.036608  2822A      7.040225  
    2823A      7.043746  2824A      7.050198  2825A      7.051440  
    2826A      7.052097  2827A      7.056627  2828A      7.060980  
    2829A      7.065366  2830A      7.068674  2831A      7.069129  
    2832A      7.070878  2833A      7.082965  2834A      7.088493  
    2835A      7.092704  2836A      7.095049  2837A      7.096875  
    2838A      7.097433  2839A      7.098584  2840A      7.100854  
    2841A      7.104323  2842A      7.113284  2843A      7.114851  
    2844A      7.120849  2845A      7.121565  2846A      7.132267  
    2847A      7.132353  2848A      7.136039  2849A      7.138179  
    2850A      7.145633  2851A      7.148690  2852A      7.150190  
    2853A      7.150657  2854A      7.156828  2855A      7.161876  
    2856A      7.167778  2857A      7.173509  2858A      7.176458  
    2859A      7.178363  2860A      7.181048  2861A      7.186257  
    2862A      7.196188  2863A      7.198779  2864A      7.200731  
    2865A      7.202792  2866A      7.207560  2867A      7.209446  
[...]
    3168A      8.624686  3169A      8.630065  3170A      8.639849  
    3171A      8.645874  3172A      8.648195  3173A      8.652291  
    3174A      8.662833  3175A      8.666514  3176A      8.666637  
    3177A      8.674662  3178A      8.677550  3179A      8.678249  
    3180A      8.680747  3181A      8.685955  3182A      8.690701  
    3183A      8.696654  3184A      8.697570  3185A      8.699954  
    3186A      8.710135  3187A      8.710281  3188A      8.713806  
    3189A      8.719474  3190A      8.720821  3191A      8.723197  
    3192A      8.729473  3193A      8.735510  3194A      8.743242  
    3195A      8.744182  3196A      8.747848  3197A      8.754819  
    3198A      8.766660  3199A      8.767891  3200A      8.769301  
    3201A      8.771512  3202A      8.776102  3203A      8.782198  
    3204A      8.782847  3205A      8.787238  3206A      8.792467  
    3207A      8.797953  3208A      8.805467  3209A      8.806712  
    3210A      8.811983  3211A      8.815663  3212A      8.819203  
    3213A      8.823996  3214A      8.826758  3215A      8.831525  
    3216A      8.834153  3217A      8.836821  3218A      8.841891  
    3219A      8.844967  3220A      8.857860  3221A      8.859876  
    3222A      8.863384  3223A      8.867848  3224A      8.868215  
    3225A      8.873549  3226A      8.882579  3227A      8.884362  
    3228A      8.892092  3229A      8.899497  3230A      8.905536  
    3231A      8.915264  3232A      8.915996  3233A      8.917730  
    3234A      8.924271  3235A      8.924855  3236A      8.928995  
    3237A      8.937687  3238A      8.945880  3239A      8.947930  
    3240A      8.956297  3241A      8.957095  3242A      8.958449  
    3243A      8.966351  3244A      8.979097  3245A      8.987739  
    3246A      8.988654  3247A      8.989721  3248A      8.993876  
    3249A      8.998765  3250A      9.002670  3251A      9.007876  
    3252A      9.008877  3253A      9.011535  3254A      9.012699  
    3255A      9.023478  3256A      9.031990  3257A      9.033912  
    3258A      9.039998  3259A      9.042428  3260A      9.050173  
    3261A      9.052009  3262A      9.054484  3263A      9.067943  
    3264A      9.068745  3265A      9.073271  3266A      9.078150  
    3267A      9.083284  3268A      9.087636  3269A      9.088997  
    3270A      9.093780  3271A      9.095307  3272A      9.107227  
    3273A      9.114869  3274A      9.123310  3275A      9.126640  
    3276A      9.135519  3277A      9.136226  3278A      9.138418  
    3279A      9.142592  3280A      9.146044  3281A      9.148967  
    3282A      9.156354  3283A      9.159837  3284A      9.179443  
    3285A      9.187161  3286A      9.197096  3287A      9.202250  
    3288A      9.203245  3289A      9.206828  3290A      9.210048  
    3291A      9.215552  3292A      9.220822  3293A      9.225215  
    3294A      9.228846  3295A      9.232837  3296A      9.239748  
    3297A      9.242842  3298A      9.246387  3299A      9.256983  
    3300A      9.260322  3301A      9.263558  3302A      9.271614  
    3303A      9.276860  3304A      9.287511  3305A      9.291819  
    3306A      9.292369  3307A      9.297339  3308A      9.300472  
    3309A      9.307879  3310A      9.314496  3311A      9.318414  
    3312A      9.323874  3313A      9.330071  3314A      9.336347  
    3315A      9.341701  3316A      9.343606  3317A      9.348628  
    3318A      9.351676  3319A      9.367024  3320A      9.370232  
    3321A      9.385506  3322A      9.391012  3323A      9.402677  
    3324A      9.404796  3325A      9.405389  3326A      9.409213  
    3327A      9.410787  3328A      9.421854  3329A      9.424215  
    3330A      9.430145  3331A      9.433185  3332A      9.440176  
    3333A      9.442665  3334A      9.446876  3335A      9.450379  
    3336A      9.457212  3337A      9.460634  3338A      9.465773  
    3339A      9.469257  3340A      9.472803  3341A      9.483426  
    3342A      9.489486  3343A      9.492038  3344A      9.499979  
    3345A      9.505735  3346A      9.507230  3347A      9.512964  
    3348A      9.515156  3349A      9.522806  3350A      9.530095  
    3351A      9.538493  3352A      9.544831  3353A      9.547051  
    3354A      9.549855  3355A      9.552223  3356A      9.557905  
    3357A      9.558667  3358A      9.560296  3359A      9.568654  
    3360A      9.583640  3361A      9.592962  3362A      9.596104  
    3363A      9.599032  3364A      9.601603  3365A      9.610859  
    3366A      9.619832  3367A      9.620166  3368A      9.621593  
    3369A      9.628174  3370A      9.633697  3371A      9.641523  
    3372A      9.646940  3373A      9.651430  3374A      9.655010  
    3375A      9.661693  3376A      9.674259  3377A      9.674809  
    3378A      9.683432  3379A      9.687168  3380A      9.695326  
    3381A      9.704983  3382A      9.709065  3383A      9.724237  
    3384A      9.725495  3385A      9.727897  3386A      9.729458  
    3387A      9.738281  3388A      9.740729  3389A      9.744841  
    3390A      9.746896  3391A      9.755096  3392A      9.763800  
    3393A      9.765288  3394A      9.766840  3395A      9.767855  
    3396A      9.776178  3397A      9.784591  3398A      9.791599  
    3399A      9.794362  3400A      9.796317  3401A      9.802114  
    3402A      9.810943  3403A      9.812317  3404A      9.816800  
    3405A      9.819392  3406A      9.820661  3407A      9.826511  
    3408A      9.827924  3409A      9.830150  3410A      9.843084  
    3411A      9.854161  3412A      9.854863  3413A      9.859822  
    3414A      9.864145  3415A      9.866816  3416A      9.871802  
    3417A      9.877456  3418A      9.886569  3419A      9.894265  
    3420A      9.898644  3421A      9.901290  3422A      9.904592  
    3423A      9.908017  3424A      9.908542  3425A      9.915846  
    3426A      9.917318  3427A      9.922447  3428A      9.923122  
    3429A      9.925977  3430A      9.926636  3431A      9.935210  
    3432A      9.939723  3433A      9.945459  3434A      9.950592  
    3435A      9.962782  3436A      9.965516  3437A      9.971317  
    3438A      9.975701  3439A      9.993384  3440A     10.002333  
    3441A     10.007898  3442A     10.013254  3443A     10.026469  
    3444A     10.038368  3445A     10.044348  3446A     10.047022  
    3447A     10.049012  3448A     10.049968  3449A     10.062534  
    3450A     10.065267  3451A     10.068598  3452A     10.073260  
    3453A     10.081328  3454A     10.090950  3455A     10.095543  
    3456A     10.109952  3457A     10.113887  3458A     10.120144  
    3459A     10.135762  3460A     10.138278  3461A     10.140227  
    3462A     10.147383  3463A     10.149928  3464A     10.150404  
    3465A     10.154307  3466A     10.161271  3467A     10.170542  
    3468A     10.173801  3469A     10.176110  3470A     10.180312  
    3471A     10.183722  3472A     10.189245  3473A     10.200777  
    3474A     10.201157  3475A     10.205072  3476A     10.213445  
    3477A     10.214684  3478A     10.221257  3479A     10.223036  
    3480A     10.229556  3481A     10.235225  3482A     10.237355  
    3483A     10.249382  3484A     10.253627  3485A     10.264821  
    3486A     10.267178  3487A     10.272120  3488A     10.273214  
    3489A     10.274326  3490A     10.282967  3491A     10.290374  
    3492A     10.291245  3493A     10.297104  3494A     10.299916  
    3495A     10.300826  3496A     10.301733  3497A     10.308016  
    3498A     10.313674  3499A     10.317131  3500A     10.318083  
    3501A     10.330605  3502A     10.332286  3503A     10.339423  
    3504A     10.341254  3505A     10.344909  3506A     10.352072  
    3507A     10.360025  3508A     10.367431  3509A     10.368172  
    3510A     10.370397  3511A     10.377262  3512A     10.381306  
    3513A     10.385947  3514A     10.399991  3515A     10.408732  
    3516A     10.417536  3517A     10.421180  3518A     10.424624  
    3519A     10.427393  3520A     10.435323  3521A     10.443664  
    3522A     10.447000  3523A     10.454766  3524A     10.455243  
    3525A     10.459859  3526A     10.464007  3527A     10.467855  
    3528A     10.477409  3529A     10.480523  3530A     10.493519  
    3531A     10.503120  3532A     10.515425  3533A     10.526779  
    3534A     10.538077  3535A     10.538268  3536A     10.549187  
    3537A     10.571328  3538A     10.587525  3539A     10.589120  
    3540A     10.592983  3541A     10.602481  3542A     10.607821  
    3543A     10.611928  3544A     10.624418  3545A     10.653522  
    3546A     10.654070  3547A     10.663768  3548A     10.674642  
    3549A     10.676827  3550A     10.700154  3551A     10.709287  
    3552A     10.712351  3553A     10.739193  3554A     10.740103  
    3555A     10.755697  3556A     10.760080  3557A     10.765078  
    3558A     10.769691  3559A     10.784061  3560A     10.792458  
    3561A     10.797689  3562A     10.815053  3563A     10.819118  
    3564A     10.821887  3565A     10.824974  3566A     10.836159  
    3567A     10.839788  3568A     10.841646  3569A     10.849872  
    3570A     10.853789  3571A     10.863944  3572A     10.876245  
    3573A     10.878768  3574A     10.883566  3575A     10.886774  
    3576A     10.887622  3577A     10.894800  3578A     10.897438  
    3579A     10.901180  3580A     10.909332  3581A     10.911318  
    3582A     10.920700  3583A     10.924795  3584A     10.951972  
    3585A     10.956514  3586A     10.961598  3587A     10.968303  
    3588A     10.982262  3589A     10.995472  3590A     10.996911  
    3591A     11.005927  3592A     11.011776  3593A     11.012180  
    3594A     11.017233  3595A     11.021665  3596A     11.029617  
    3597A     11.039867  3598A     11.047616  3599A     11.054882  
    3600A     11.056396  3601A     11.067974  3602A     11.069974  
    3603A     11.076296  3604A     11.081819  3605A     11.085624  
    3606A     11.094556  3607A     11.103270  3608A     11.111436  
    3609A     11.111765  3610A     11.111790  3611A     11.124369  
    3612A     11.133131  3613A     11.135054  3614A     11.143524  
    3615A     11.152057  3616A     11.153941  3617A     11.163957  
    3618A     11.165654  3619A     11.169033  3620A     11.175558  
    3621A     11.176902  3622A     11.181011  3623A     11.198331  
    3624A     11.201095  3625A     11.213850  3626A     11.218289  
    3627A     11.218816  3628A     11.222225  3629A     11.227159  
    3630A     11.232853  3631A     11.245456  3632A     11.250340  
    3633A     11.250999  3634A     11.253181  3635A     11.258191  
    3636A     11.260445  3637A     11.270554  3638A     11.276353  
    3639A     11.282184  3640A     11.288205  3641A     11.295584  
    3642A     11.319092  3643A     11.322982  3644A     11.325943  
    3645A     11.330279  3646A     11.352845  3647A     11.358310  
    3648A     11.360256  3649A     11.366734  3650A     11.376781  
    3651A     11.388477  3652A     11.394812  3653A     11.396458  
    3654A     11.408554  3655A     11.410779  3656A     11.420364  
    3657A     11.424363  3658A     11.432651  3659A     11.446512  
    3660A     11.450027  3661A     11.457147  3662A     11.458636  
    3663A     11.465640  3664A     11.470979  3665A     11.473745  
    3666A     11.500078  3667A     11.503220  3668A     11.519107  
    3669A     11.527106  3670A     11.527782  3671A     11.545852  
    3672A     11.547119  3673A     11.550289  3674A     11.551067  
    3675A     11.570179  3676A     11.576111  3677A     11.582027  
    3678A     11.598384  3679A     11.602654  3680A     11.607230  
    3681A     11.611281  3682A     11.614940  3683A     11.620882  
    3684A     11.628012  3685A     11.636049  3686A     11.641579  
    3687A     11.646444  3688A     11.655386  3689A     11.657309  
    3690A     11.662902  3691A     11.671090  3692A     11.680038  
    3693A     11.683959  3694A     11.691660  3695A     11.699071  
    3696A     11.711396  3697A     11.715662  3698A     11.716584  
    3699A     11.720695  3700A     11.746023  3701A     11.755432  
    3702A     11.764942  3703A     11.781454  3704A     11.786114  
    3705A     11.789570  3706A     11.792123  3707A     11.796300  
    3708A     11.799978  3709A     11.808082  3710A     11.819331  
    3711A     11.825068  3712A     11.848834  3713A     11.864860  
    3714A     11.874416  3715A     11.891261  3716A     11.901437  
    3717A     11.904290  3718A     11.916893  3719A     11.930811  
    3720A     11.932683  3721A     11.935603  3722A     11.937917  
    3723A     11.951426  3724A     11.957798  3725A     11.958607  
    3726A     11.966060  3727A     11.972939  3728A     11.981373  
    3729A     12.000657  3730A     12.009387  3731A     12.013216  
    3732A     12.024339  3733A     12.043938  3734A     12.044232  
    3735A     12.045064  3736A     12.071856  3737A     12.083860  
    3738A     12.102567  3739A     12.113466  3740A     12.121225  
    3741A     12.165885  3742A     12.178094  3743A     12.178144  
    3744A     12.184252  3745A     12.186349  3746A     12.196605  
    3747A     12.198608  3748A     12.209677  3749A     12.227637  
    3750A     12.235396  3751A     12.236567  3752A     12.237913  
    3753A     12.246901  3754A     12.247810  3755A     12.253230  
    3756A     12.258260  3757A     12.267262  3758A     12.267515  
    3759A     12.272431  3760A     12.287173  3761A     12.293627  
    3762A     12.297276  3763A     12.316335  3764A     12.319016  
    3765A     12.320374  3766A     12.320746  3767A     12.337395  
    3768A     12.350014  3769A     12.351987  3770A     12.353662  
    3771A     12.364170  3772A     12.377931  3773A     12.385661  
    3774A     12.392039  3775A     12.401031  3776A     12.411815  
    3777A     12.419992  3778A     12.421814  3779A     12.437009  
    3780A     12.447423  3781A     12.450804  3782A     12.475547  
    3783A     12.485244  3784A     12.504694  3785A     12.531124  
    3786A     12.552662  3787A     12.564559  3788A     12.591755  
    3789A     12.602806  3790A     12.607400  3791A     12.617475  
    3792A     12.627855  3793A     12.676455  3794A     12.684261  
    3795A     12.689611  3796A     12.738141  3797A     12.749316  
    3798A     12.751175  3799A     12.761662  3800A     12.776939  
    3801A     12.780972  3802A     12.798528  3803A     12.806831  
    3804A     12.808384  3805A     12.821969  3806A     12.833537  
    3807A     12.843943  3808A     12.852725  3809A     12.863786  
    3810A     12.866509  3811A     12.872230  3812A     12.883457  
    3813A     12.892045  3814A     12.921231  3815A     12.933100  
    3816A     12.953191  3817A     12.971108  3818A     12.972483  
    3819A     12.973305  3820A     12.980681  3821A     12.994593  
    3822A     13.000114  3823A     13.012977  3824A     13.015473  
    3825A     13.037442  3826A     13.048008  3827A     13.052814  
    3828A     13.074998  3829A     13.079631  3830A     13.089028  
    3831A     13.093605  3832A     13.100975  3833A     13.102073  
    3834A     13.116892  3835A     13.130144  3836A     13.132256  
    3837A     13.133853  3838A     13.146850  3839A     13.164751  
    3840A     13.177439  3841A     13.200766  3842A     13.207278  
    3843A     13.209907  3844A     13.243812  3845A     13.244147  
    3846A     13.260790  3847A     13.282047  3848A     13.283858  
    3849A     13.311454  3850A     13.319085  3851A     13.351704  
    3852A     13.352438  3853A     13.353326  3854A     13.365065  
    3855A     13.375621  3856A     13.391187  3857A     13.398600  
    3858A     13.402746  3859A     13.418053  3860A     13.421414  
    3861A     13.431530  3862A     13.432723  3863A     13.440224  
    3864A     13.449542  3865A     13.461580  3866A     13.462538  
    3867A     13.467242  3868A     13.472529  3869A     13.489901  
    3870A     13.510711  3871A     13.515770  3872A     13.525171  
    3873A     13.539386  3874A     13.547670  3875A     13.553289  
    3876A     13.555326  3877A     13.558256  3878A     13.586194  
    3879A     13.604719  3880A     13.606885  3881A     13.611802  
    3882A     13.622539  3883A     13.658999  3884A     13.690627  
    3885A     13.694809  3886A     13.721754  3887A     13.756155  
    3888A     13.761238  3889A     13.770510  3890A     13.785740  
    3891A     13.813592  3892A     13.831709  3893A     13.874899  
    3894A     13.889016  3895A     13.910835  3896A     13.915104  
    3897A     13.952475  3898A     13.965710  3899A     13.991590  
    3900A     14.049746  3901A     14.055891  3902A     14.071645  
    3903A     14.072985  3904A     14.083906  3905A     14.122252  
    3906A     14.152436  3907A     14.155644  3908A     14.194454  
    3909A     14.212706  3910A     14.271316  3911A     14.350932  
    3912A     14.388235  3913A     14.404042  3914A     14.523961  
    3915A     14.541044  3916A     14.541634  3917A     14.590792  
    3918A     14.628005  3919A     14.637046  3920A     14.651695  
    3921A     14.664461  3922A     14.668412  3923A     14.675381  
    3924A     14.701604  3925A     14.707224  3926A     14.799005  
    3927A     14.877824  3928A     14.900208  3929A     14.918916  
    3930A     15.023022  3931A     15.072473  3932A     15.077875  
    3933A     15.094468  3934A     15.127833  3935A     15.129993  
    3936A     15.169210  3937A     15.181568  3938A     15.205195  
    3939A     15.209174  3940A     15.252894  3941A     15.288218  
    3942A     15.371446  3943A     15.402426  3944A     15.417047  
    3945A     15.447090  3946A     15.449250  3947A     15.527238  
    3948A     15.557385  3949A     15.568943  3950A     15.596746  
    3951A     15.599903  3952A     17.405797  3953A     17.542895  
    3954A     17.688978  3955A     26.594768  3956A     26.790730  
    3957A     26.883489  3958A     27.006146  3959A     27.026660  
    3960A     27.258420  3961A     27.417620  3962A     27.450137  
    3963A     28.078798  3964A     28.096070  3965A     28.156057  
    3966A     28.405612  3967A     28.462417  3968A     28.480922  
    3969A     28.514986  3970A     28.704164  3971A     35.495123  
    3972A     36.095682  3973A     36.180765  3974A     36.360774  
    3975A     36.414640  3976A     43.965437  3977A     44.446082  
    3978A     44.451155  3979A     44.652510  3980A     44.662500  
    3981A     44.713462  3982A     45.039454  3983A     45.120785  
    3984A     45.966992  3985A     46.325625  3986A     46.618899  

    Final Occupation by Irrep:
              A 
    DOCC [   125 ]

  Energy converged.

  @DF-RHF Final Energy: -1720.26167334810452

   => Energetics <=

    Nuclear Repulsion Energy =           2982.7484935527136258
    One-Electron Energy =               -8294.4461876636414672
    Two-Electron Energy =                3591.4360207628233184
    Total Energy =                      -1720.2616733481045230



Properties will be evaluated at   0.000000,   0.000000,   0.000000 Bohr

Properties computed using the SCF density matrix

  Nuclear Dipole Moment: (a.u.)
     X:   -12.8500      Y:     5.9243      Z:     4.6194

  Electronic Dipole Moment: (a.u.)
     X:    12.8463      Y:    -6.0719      Z:    -2.6451

  Dipole Moment: (a.u.)
     X:    -0.0038      Y:    -0.1475      Z:     1.9743     Total:     1.9798

  Dipole Moment: (Debye)
     X:    -0.0095      Y:    -0.3750      Z:     5.0181     Total:     5.0321


*** tstop() called on hex15 at Thu Mar  8 02:16:30 2018
Module time:
	user time   =   30798.71 seconds =     513.31 minutes
	system time =    1929.21 seconds =      32.15 minutes
	total time  =      22591 seconds =     376.52 minutes
Total time:
	user time   =   30798.71 seconds =     513.31 minutes
	system time =    1929.21 seconds =      32.15 minutes
	total time  =      22591 seconds =     376.52 minutes

*** Psi4 exiting successfully. Buy a developer a beer!
