
    -----------------------------------------------------------------------
          Psi4: An Open-Source Ab Initio Electronic Structure Package
                               Psi4 1.2a1.dev875 

                         Git: Rev {symm_JK} 0ea9481 dirty


    R. M. Parrish, L. A. Burns, D. G. A. Smith, A. C. Simmonett,
    A. E. DePrince III, E. G. Hohenstein, U. Bozkaya, A. Yu. Sokolov,
    R. Di Remigio, R. M. Richard, J. F. Gonthier, A. M. James,
    H. R. McAlexander, A. Kumar, M. Saitow, X. Wang, B. P. Pritchard,
    P. Verma, H. F. Schaefer III, K. Patkowski, R. A. King, E. F. Valeev,
    F. A. Evangelista, J. M. Turney, T. D. Crawford, and C. D. Sherrill,
    J. Chem. Theory Comput. 13(7) pp 3185--3197 (2017).
    (doi: 10.1021/acs.jctc.7b00174)

    -----------------------------------------------------------------------


    Psi4 started on: Thursday, 01 March 2018 06:37PM

    Process ID:  32138
    PSIDATADIR: /theoryfs2/ds/schieber/Gits/mspsi4/objdir3/stage/usr/local/psi4/share/psi4
    Memory:     500.0 MiB
    Threads:    6
    
  ==> Input File <==

--------------------------------------------------------------------------
memory 60 Gb

molecule protein_30 {
0 1
 N   18.626  30.444   6.627
 C   17.853  29.516   5.837
 C   16.945  30.292   4.886
 O   15.843  30.678   5.237
 C   17.047  28.642   6.811
 C   16.316  27.513   6.146
 O   16.236  27.458   4.905
 O   15.762  26.696   6.882
 N   17.407  27.054  -1.437
 C   17.227  26.751  -0.026
 C   18.555  26.446   0.653
 O   19.003  25.309   0.692
 C   16.258  25.572   0.084
 C   15.759  25.336   1.493
 O   16.399  25.780   2.453
 O   14.731  24.675   1.645
 H   18.180  30.990   7.295
 H   18.510  28.835   5.249
 H   16.336  29.276   7.377
 H   17.778  28.186   7.516
 H   15.845  26.702   7.843
 H   17.860  26.421  -2.023
 H   16.724  27.595   0.500
 H   16.724  24.663  -0.337
 H   15.363  25.845  -0.519
 H   16.737  25.171   3.109
 H   19.646  30.419   6.619
 H   17.295  30.415   3.850
 H   16.947  27.858  -1.864
 H   19.060  27.284   1.155
}

set {
basis aug-cc-pvtz
scf_type df
guess sad
DF_SCF_TYPE SYMM_JK
}

energy('HF')
--------------------------------------------------------------------------

  Memory set to  55.879 GiB by Python driver.

*** tstart() called on hex15
*** at Thu Mar  1 18:37:03 2018

   => Loading Basis Set <=

    Name: AUG-CC-PVTZ
    Role: ORBITAL
    Keyword: BASIS
    atoms 1, 9                   entry N          line   281 file /theoryfs2/ds/schieber/Gits/mspsi4/objdir3/stage/usr/local/psi4/share/psi4/basis/aug-cc-pvtz.gbs 
    atoms 2-3, 5-6, 10-11, 13-14 entry C          line   235 file /theoryfs2/ds/schieber/Gits/mspsi4/objdir3/stage/usr/local/psi4/share/psi4/basis/aug-cc-pvtz.gbs 
    atoms 4, 7-8, 12, 15-16      entry O          line   327 file /theoryfs2/ds/schieber/Gits/mspsi4/objdir3/stage/usr/local/psi4/share/psi4/basis/aug-cc-pvtz.gbs 
    atoms 17-30                  entry H          line    36 file /theoryfs2/ds/schieber/Gits/mspsi4/objdir3/stage/usr/local/psi4/share/psi4/basis/aug-cc-pvtz.gbs 


         ---------------------------------------------------------
                                   SCF
            by Justin Turney, Rob Parrish, Andy Simmonett
                             and Daniel Smith
                              RHF Reference
                        6 Threads,  57220 MiB Core
         ---------------------------------------------------------

  ==> Geometry <==

    Molecular point group: c1
    Full point group: C1

    Geometry (in Angstrom), charge = 0, multiplicity = 1:

       Center              X                  Y                   Z               Mass       
    ------------   -----------------  -----------------  -----------------  -----------------
           N          1.759981620253     3.071942570653     3.302034477710    14.003074004780
           C          0.986981620253     2.143942570653     2.512034477710    12.000000000000
           C          0.078981620253     2.919942570653     1.561034477710    12.000000000000
           O         -1.023018379747     3.305942570653     1.912034477710    15.994914619560
           C          0.180981620253     1.269942570653     3.486034477710    12.000000000000
           C         -0.550018379747     0.140942570653     2.821034477710    12.000000000000
           O         -0.630018379747     0.085942570653     1.580034477710    15.994914619560
           O         -1.104018379747    -0.676057429347     3.557034477710    15.994914619560
           N          0.540981620253    -0.318057429347    -4.761965522290    14.003074004780
           C          0.360981620253    -0.621057429347    -3.350965522290    12.000000000000
           C          1.688981620253    -0.926057429347    -2.671965522290    12.000000000000
           O          2.136981620253    -2.063057429347    -2.632965522290    15.994914619560
           C         -0.608018379747    -1.800057429347    -3.240965522290    12.000000000000
           C         -1.107018379747    -2.036057429347    -1.831965522290    12.000000000000
           O         -0.467018379747    -1.592057429347    -0.871965522290    15.994914619560
           O         -2.135018379747    -2.697057429347    -1.679965522290    15.994914619560
           H          1.313981620253     3.617942570653     3.970034477710     1.007825032070
           H          1.643981620253     1.462942570653     1.924034477710     1.007825032070
           H         -0.530018379747     1.903942570653     4.052034477710     1.007825032070
           H          0.911981620253     0.813942570653     4.191034477710     1.007825032070
           H         -1.021018379747    -0.670057429347     4.518034477710     1.007825032070
           H          0.993981620253    -0.951057429347    -5.347965522290     1.007825032070
           H         -0.142018379747     0.222942570653    -2.824965522290     1.007825032070
           H         -0.142018379747    -2.709057429347    -3.661965522290     1.007825032070
           H         -1.503018379747    -1.527057429347    -3.843965522290     1.007825032070
           H         -0.129018379747    -2.201057429347    -0.215965522290     1.007825032070
           H          2.779981620253     3.046942570653     3.294034477710     1.007825032070
           H          0.428981620253     3.042942570653     0.525034477710     1.007825032070
           H          0.080981620253     0.485942570653    -5.188965522290     1.007825032070
           H          2.193981620253    -0.088057429347    -2.169965522290     1.007825032070

  Running in c1 symmetry.

  Rotational constants: A =      0.02246  B =      0.00667  C =      0.00592 [cm^-1]
  Rotational constants: A =    673.47508  B =    199.82875  C =    177.40117 [MHz]
  Nuclear repulsion = 1089.601628930780862

  Charge       = 0
  Multiplicity = 1
  Electrons    = 124
  Nalpha       = 62
  Nbeta        = 62

  ==> Algorithm <==

  SCF Algorithm Type is DF.
  DIIS enabled.
  MOM disabled.
  Fractional occupation disabled.
  Guess Type is SAD.
  Energy threshold   = 1.00e-06
  Density threshold  = 1.00e-06
  Integral threshold = 0.00e+00

  ==> Primary Basis <==

  Basis Set: AUG-CC-PVTZ
    Blend: AUG-CC-PVTZ
    Number of shells: 350
    Number of basis function: 1058
    Number of Cartesian functions: 1230
    Spherical Harmonics?: true
    Max angular momentum: 3

   => Loading Basis Set <=

    Name: (AUG-CC-PVTZ AUX)
    Role: JKFIT
    Keyword: DF_BASIS_SCF
    atoms 1, 9                   entry N          line   224 file /theoryfs2/ds/schieber/Gits/mspsi4/objdir3/stage/usr/local/psi4/share/psi4/basis/aug-cc-pvtz-jkfit.gbs 
    atoms 2-3, 5-6, 10-11, 13-14 entry C          line   162 file /theoryfs2/ds/schieber/Gits/mspsi4/objdir3/stage/usr/local/psi4/share/psi4/basis/aug-cc-pvtz-jkfit.gbs 
    atoms 4, 7-8, 12, 15-16      entry O          line   286 file /theoryfs2/ds/schieber/Gits/mspsi4/objdir3/stage/usr/local/psi4/share/psi4/basis/aug-cc-pvtz-jkfit.gbs 
    atoms 17-30                  entry H          line    70 file /theoryfs2/ds/schieber/Gits/mspsi4/objdir3/stage/usr/local/psi4/share/psi4/basis/aug-cc-pvtz-jkfit.gbs 

  ==> Pre-Iterations <==

   -------------------------------------------------------
    Irrep   Nso     Nmo     Nalpha   Nbeta   Ndocc  Nsocc
   -------------------------------------------------------
     A       1058    1058       0       0       0       0
   -------------------------------------------------------
    Total    1058    1058      62      62      62       0
   -------------------------------------------------------

  ==> Integral Setup <==


    ==> DF_Helper <==
      nao           = 1058
      naux          = 2308
      Scwarz cutoff = 1.000000E-12
      mem (doubles) = 5625000000
      nthreads      = 6
      Algorithm     = STORE
      AO_core?      = 1
      MO_core?      = 0
      hold metric   = 0
      metric power  = -5.000000E-01
  Fitting condition = 1.000000E-12
  Mask sparsity (%) = (23.521393)


  Minimum eigenvalue in the overlap matrix is 2.9378676359E-06.
  Using Symmetric Orthogonalization.

  SCF Guess: Superposition of Atomic Densities via on-the-fly atomic UHF.

  ==> Iterations <==

                           Total Energy        Delta E     RMS |[F,P]|

   @DF-RHF iter   0:  -875.14353604714017   -8.75144e+02   1.76388e-02 
   @DF-RHF iter   1:  -868.82678031582543    6.31676e+00   2.44608e-03 
   @DF-RHF iter   2:  -869.21559064153212   -3.88810e-01   1.74089e-03 DIIS
   @DF-RHF iter   3:  -869.41672122365503   -2.01131e-01   3.67368e-04 DIIS
   @DF-RHF iter   4:  -869.43626783505374   -1.95466e-02   1.28443e-04 DIIS
   @DF-RHF iter   5:  -869.43931537182596   -3.04754e-03   5.13772e-05 DIIS
   @DF-RHF iter   6:  -869.43994512542201   -6.29754e-04   2.28721e-05 DIIS
   @DF-RHF iter   7:  -869.44008686947552   -1.41744e-04   9.98156e-06 DIIS
   @DF-RHF iter   8:  -869.44011065103018   -2.37816e-05   3.63668e-06 DIIS
   @DF-RHF iter   9:  -869.44011456782141   -3.91679e-06   1.39275e-06 DIIS
   @DF-RHF iter  10:  -869.44011524945597   -6.81635e-07   6.30063e-07 DIIS

  ==> Post-Iterations <==

    Orbital Energies (a.u.)
    -----------------------

    Doubly Occupied:                                                      

       1A    -20.642306     2A    -20.595457     3A    -20.564994  
       4A    -20.560100     5A    -20.534994     6A    -20.511183  
       7A    -15.559891     8A    -15.549803     9A    -11.391293  
      10A    -11.360808    11A    -11.339383    12A    -11.336616  
      13A    -11.296661    14A    -11.285240    15A    -11.262997  
      16A    -11.233580    17A     -1.524124    18A     -1.490858  
      19A     -1.392780    20A     -1.390594    21A     -1.350820  
      22A     -1.327070    23A     -1.214057    24A     -1.198498  
      25A     -1.053739    26A     -1.038321    27A     -0.948140  
      28A     -0.931081    29A     -0.903456    30A     -0.865185  
      31A     -0.801107    32A     -0.789438    33A     -0.746324  
      34A     -0.726365    35A     -0.715521    36A     -0.689675  
      37A     -0.687309    38A     -0.686879    39A     -0.681008  
      40A     -0.657952    41A     -0.657244    42A     -0.647542  
      43A     -0.641070    44A     -0.628823    45A     -0.624306  
      46A     -0.617126    47A     -0.571594    48A     -0.558698  
      49A     -0.554058    50A     -0.530489    51A     -0.524844  
      52A     -0.515649    53A     -0.513598    54A     -0.499480  
      55A     -0.468691    56A     -0.457975    57A     -0.450360  
      58A     -0.442872    59A     -0.440972    60A     -0.429710  
      61A     -0.385336    62A     -0.373155  

    Virtual:                                                              

      63A      0.011610    64A      0.021002    65A      0.027472  
      66A      0.031475    67A      0.038948    68A      0.044147  
      69A      0.048750    70A      0.050874    71A      0.053479  
      72A      0.058691    73A      0.065021    74A      0.067592  
      75A      0.074039    76A      0.077956    77A      0.087392  
      78A      0.090855    79A      0.096745    80A      0.098845  
      81A      0.101222    82A      0.108090    83A      0.112515  
      84A      0.113981    85A      0.115635    86A      0.118618  
      87A      0.121384    88A      0.124940    89A      0.130101  
      90A      0.133544    91A      0.134469    92A      0.137100  
      93A      0.140401    94A      0.140730    95A      0.141369  
      96A      0.143347    97A      0.147123    98A      0.149406  
      99A      0.151415   100A      0.155570   101A      0.156528  
     102A      0.164313   103A      0.167451   104A      0.170046  
     105A      0.177035   106A      0.182163   107A      0.185364  
     108A      0.187000   109A      0.189292   110A      0.190860  
     111A      0.194543   112A      0.197839   113A      0.204729  
     114A      0.210010   115A      0.210930   116A      0.214174  
     117A      0.219658   118A      0.223269   119A      0.231708  
     120A      0.234924   121A      0.240559   122A      0.243256  
     123A      0.251348   124A      0.259903   125A      0.262156  
     126A      0.264176   127A      0.268077   128A      0.273316  
     129A      0.274253   130A      0.277151   131A      0.277366  
     132A      0.280496   133A      0.287326   134A      0.289316  
     135A      0.293938   136A      0.297554   137A      0.299466  
     138A      0.301033   139A      0.302761   140A      0.306213  
     141A      0.308351   142A      0.313211   143A      0.315108  
     144A      0.317558   145A      0.320960   146A      0.324919  
     147A      0.326280   148A      0.329424   149A      0.332143  
     150A      0.337397   151A      0.339089   152A      0.342438  
     153A      0.347324   154A      0.352508   155A      0.353169  
     156A      0.357092   157A      0.359970   158A      0.362868  
     159A      0.366451   160A      0.372793   161A      0.374981  
     162A      0.375978   163A      0.378027   164A      0.381639  
     165A      0.383790   166A      0.387836   167A      0.393025  
     168A      0.394783   169A      0.399335   170A      0.403186  
     171A      0.407641   172A      0.409474   173A      0.411474  
     174A      0.415641   175A      0.417065   176A      0.419620  
     177A      0.422366   178A      0.424376   179A      0.432031  
     180A      0.434380   181A      0.436338   182A      0.441797  
     183A      0.446174   184A      0.448797   185A      0.453822  
     186A      0.460065   187A      0.461207   188A      0.465201  
     189A      0.465770   190A      0.469720   191A      0.476761  
     192A      0.478000   193A      0.486817   194A      0.489705  
     195A      0.491827   196A      0.496850   197A      0.499376  
     198A      0.506066   199A      0.506266   200A      0.509419  
     201A      0.513127   202A      0.513731   203A      0.520892  
     204A      0.523366   205A      0.528482   206A      0.532640  
     207A      0.535433   208A      0.539310   209A      0.541462  
     210A      0.546258   211A      0.546818   212A      0.551127  
     213A      0.553565   214A      0.557757   215A      0.564921  
     216A      0.566724   217A      0.572167   218A      0.575510  
     219A      0.576649   220A      0.580575   221A      0.587369  
     222A      0.591120   223A      0.594105   224A      0.599364  
     225A      0.600146   226A      0.601887   227A      0.609545  
     228A      0.614261   229A      0.616724   230A      0.624841  
     231A      0.627553   232A      0.631814   233A      0.637459  
     234A      0.640332   235A      0.644864   236A      0.648646  
     237A      0.652520   238A      0.653079   239A      0.657133  
     240A      0.660452   241A      0.663965   242A      0.669238  
     243A      0.673393   244A      0.673946   245A      0.681027  
     246A      0.684874   247A      0.688051   248A      0.695424  
     249A      0.704241   250A      0.707433   251A      0.711964  
     252A      0.713688   253A      0.717822   254A      0.718966  
     255A      0.723959   256A      0.724394   257A      0.732545  
     258A      0.737506   259A      0.745335   260A      0.747053  
     261A      0.749722   262A      0.755447   263A      0.769397  
     264A      0.774599   265A      0.781442   266A      0.784410  
     267A      0.787960   268A      0.793083   269A      0.796440  
     270A      0.801495   271A      0.806601   272A      0.807021  
     273A      0.809490   274A      0.814154   275A      0.818601  
     276A      0.825288   277A      0.829261   278A      0.838164  
     279A      0.839251   280A      0.843361   281A      0.844193  
     282A      0.852449   283A      0.856326   284A      0.861086  
     285A      0.869219   286A      0.873800   287A      0.875204  
     288A      0.876526   289A      0.889569   290A      0.897002  
     291A      0.900820   292A      0.902228   293A      0.905940  
     294A      0.912741   295A      0.913612   296A      0.915749  
     297A      0.922353   298A      0.926862   299A      0.928709  
     300A      0.934372   301A      0.935967   302A      0.937772  
     303A      0.946359   304A      0.949342   305A      0.952743  
     306A      0.960324   307A      0.962534   308A      0.967366  
     309A      0.968644   310A      0.973008   311A      0.979765  
     312A      0.982792   313A      0.985007   314A      0.989793  
     315A      0.993764   316A      0.998573   317A      1.001451  
     318A      1.008286   319A      1.013537   320A      1.017738  
     321A      1.020188   322A      1.024970   323A      1.028902  
     324A      1.031469   325A      1.036840   326A      1.038628  
     327A      1.039921   328A      1.043373   329A      1.052917  
     330A      1.055024   331A      1.057210   332A      1.059152  
     333A      1.065606   334A      1.070815   335A      1.074816  
     336A      1.075711   337A      1.078586   338A      1.082693  
     339A      1.089618   340A      1.095889   341A      1.097996  
     342A      1.101572   343A      1.105409   344A      1.107736  
     345A      1.110141   346A      1.114790   347A      1.116540  
     348A      1.120453   349A      1.123599   350A      1.129309  
     351A      1.130231   352A      1.137175   353A      1.139768  
     354A      1.144590   355A      1.150275   356A      1.153758  
     357A      1.156383   358A      1.163202   359A      1.170271  
     360A      1.170747   361A      1.175170   362A      1.178868  
     363A      1.182073   364A      1.184204   365A      1.191224  
     366A      1.198517   367A      1.203228   368A      1.205290  
     369A      1.205576   370A      1.207661   371A      1.210393  
     372A      1.221819   373A      1.224159   374A      1.233097  
     375A      1.234904   376A      1.239893   377A      1.247973  
     378A      1.251027   379A      1.260238   380A      1.262082  
     381A      1.269662   382A      1.275197   383A      1.278163  
     384A      1.281387   385A      1.286963   386A      1.291056  
     387A      1.294502   388A      1.299845   389A      1.305760  
     390A      1.315626   391A      1.318140   392A      1.320169  
     393A      1.323931   394A      1.330305   395A      1.333489  
     396A      1.347007   397A      1.349657   398A      1.352075  
     399A      1.356951   400A      1.360794   401A      1.367761  
     402A      1.369394   403A      1.377881   404A      1.384029  
     405A      1.386754   406A      1.389887   407A      1.393311  
     408A      1.398554   409A      1.404726   410A      1.407960  
     411A      1.424913   412A      1.428680   413A      1.430409  
     414A      1.436459   415A      1.439262   416A      1.443245  
     417A      1.452524   418A      1.459015   419A      1.463007  
     420A      1.468968   421A      1.472440   422A      1.480850  
     423A      1.482728   424A      1.488108   425A      1.493180  
     426A      1.495272   427A      1.500320   428A      1.504816  
     429A      1.510488   430A      1.515792   431A      1.516830  
     432A      1.526837   433A      1.528865   434A      1.536110  
     435A      1.540532   436A      1.545569   437A      1.550535  
     438A      1.555059   439A      1.560244   440A      1.564563  
     441A      1.568174   442A      1.575781   443A      1.578799  
     444A      1.584196   445A      1.588161   446A      1.597062  
     447A      1.598400   448A      1.606099   449A      1.613746  
     450A      1.615295   451A      1.621871   452A      1.625487  
     453A      1.631530   454A      1.636430   455A      1.642539  
     456A      1.646935   457A      1.649862   458A      1.659379  
     459A      1.666811   460A      1.670314   461A      1.680448  
     462A      1.688576   463A      1.693480   464A      1.696151  
     465A      1.698819   466A      1.701030   467A      1.706202  
     468A      1.711802   469A      1.722786   470A      1.731214  
     471A      1.738435   472A      1.742841   473A      1.744243  
     474A      1.754466   475A      1.762986   476A      1.772241  
     477A      1.776954   478A      1.780318   479A      1.786138  
     480A      1.793527   481A      1.798563   482A      1.802135  
     483A      1.804775   484A      1.811699   485A      1.818566  
     486A      1.822572   487A      1.829117   488A      1.832200  
     489A      1.836936   490A      1.845731   491A      1.847160  
     492A      1.859162   493A      1.862677   494A      1.864379  
     495A      1.875945   496A      1.880774   497A      1.885253  
     498A      1.891953   499A      1.900968   500A      1.903001  
     501A      1.912139   502A      1.915372   503A      1.919259  
     504A      1.927589   505A      1.939872   506A      1.942303  
     507A      1.949262   508A      1.953611   509A      1.954922  
     510A      1.962035   511A      1.968221   512A      1.977749  
     513A      1.983916   514A      1.991372   515A      1.998691  
     516A      2.004358   517A      2.012963   518A      2.021335  
     519A      2.023185   520A      2.027841   521A      2.034622  
     522A      2.048718   523A      2.051411   524A      2.067083  
     525A      2.069104   526A      2.092271   527A      2.096289  
     528A      2.105922   529A      2.106338   530A      2.112736  
     531A      2.124054   532A      2.127965   533A      2.134962  
     534A      2.150558   535A      2.158386   536A      2.162690  
     537A      2.169148   538A      2.181888   539A      2.186899  
     540A      2.191392   541A      2.195295   542A      2.200667  
     543A      2.215437   544A      2.217350   545A      2.221345  
     546A      2.226302   547A      2.233149   548A      2.247420  
     549A      2.252143   550A      2.261393   551A      2.275419  
     552A      2.275990   553A      2.293603   554A      2.300088  
     555A      2.304105   556A      2.316374   557A      2.329792  
     558A      2.336969   559A      2.343252   560A      2.344752  
     561A      2.352134   562A      2.357172   563A      2.370002  
     564A      2.376580   565A      2.382444   566A      2.395742  
     567A      2.403812   568A      2.407880   569A      2.417768  
     570A      2.427497   571A      2.429643   572A      2.440561  
     573A      2.447392   574A      2.457934   575A      2.462676  
     576A      2.472979   577A      2.482335   578A      2.495006  
     579A      2.498019   580A      2.502259   581A      2.510045  
     582A      2.518773   583A      2.524619   584A      2.531450  
     585A      2.533858   586A      2.541640   587A      2.547758  
     588A      2.551347   589A      2.561734   590A      2.568629  
     591A      2.570618   592A      2.579437   593A      2.583099  
     594A      2.594399   595A      2.606659   596A      2.609666  
     597A      2.612876   598A      2.621901   599A      2.631836  
     600A      2.650640   601A      2.659927   602A      2.670579  
     603A      2.671745   604A      2.679085   605A      2.682021  
     606A      2.690523   607A      2.695159   608A      2.704667  
     609A      2.714782   610A      2.716549   611A      2.722592  
     612A      2.729056   613A      2.736190   614A      2.747964  
     615A      2.752222   616A      2.759225   617A      2.766227  
     618A      2.774023   619A      2.780956   620A      2.791688  
     621A      2.800643   622A      2.812806   623A      2.818271  
     624A      2.827106   625A      2.835695   626A      2.840165  
     627A      2.846643   628A      2.851776   629A      2.862654  
     630A      2.872566   631A      2.875752   632A      2.878485  
     633A      2.902554   634A      2.906523   635A      2.916101  
     636A      2.918443   637A      2.936989   638A      2.940441  
     639A      2.949512   640A      2.965169   641A      2.968555  
     642A      2.975453   643A      2.986326   644A      2.994425  
     645A      3.000898   646A      3.018255   647A      3.028720  
     648A      3.035521   649A      3.046742   650A      3.059637  
     651A      3.066826   652A      3.075191   653A      3.083827  
     654A      3.095105   655A      3.096247   656A      3.109525  
     657A      3.122325   658A      3.131113   659A      3.150419  
     660A      3.162631   661A      3.172841   662A      3.179876  
     663A      3.189380   664A      3.202673   665A      3.217563  
     666A      3.223060   667A      3.263814   668A      3.284438  
     669A      3.295693   670A      3.300269   671A      3.317304  
     672A      3.339525   673A      3.361462   674A      3.374368  
     675A      3.399286   676A      3.407141   677A      3.423549  
     678A      3.435962   679A      3.439984   680A      3.452350  
     681A      3.457807   682A      3.475341   683A      3.487786  
     684A      3.496145   685A      3.498123   686A      3.513358  
     687A      3.516237   688A      3.545471   689A      3.549807  
     690A      3.576626   691A      3.581019   692A      3.591985  
     693A      3.606898   694A      3.609642   695A      3.628810  
     696A      3.632574   697A      3.646990   698A      3.649515  
     699A      3.662148   700A      3.675479   701A      3.678085  
     702A      3.692057   703A      3.695370   704A      3.709536  
     705A      3.714425   706A      3.730275   707A      3.732302  
     708A      3.743310   709A      3.760419   710A      3.774216  
     711A      3.782837   712A      3.794372   713A      3.797601  
     714A      3.807480   715A      3.812519   716A      3.831458  
     717A      3.844836   718A      3.850107   719A      3.860756  
     720A      3.864454   721A      3.871604   722A      3.877345  
     723A      3.883418   724A      3.888944   725A      3.893819  
     726A      3.909564   727A      3.924856   728A      3.938372  
     729A      3.942045   730A      3.953936   731A      3.961561  
     732A      3.962617   733A      3.975566   734A      3.993291  
     735A      4.005223   736A      4.012804   737A      4.017098  
     738A      4.025518   739A      4.035331   740A      4.050839  
     741A      4.057486   742A      4.059706   743A      4.069989  
     744A      4.079086   745A      4.086422   746A      4.097015  
     747A      4.099848   748A      4.104324   749A      4.118263  
     750A      4.123090   751A      4.135046   752A      4.137687  
     753A      4.142889   754A      4.153219   755A      4.159583  
     756A      4.177892   757A      4.186426   758A      4.190990  
     759A      4.207264   760A      4.212543   761A      4.216310  
     762A      4.228406   763A      4.233144   764A      4.246574  
     765A      4.255475   766A      4.264337   767A      4.267492  
     768A      4.275975   769A      4.276458   770A      4.286843  
     771A      4.291646   772A      4.297504   773A      4.307684  
     774A      4.313869   775A      4.319401   776A      4.325906  
     777A      4.334845   778A      4.337038   779A      4.340725  
     780A      4.364690   781A      4.368660   782A      4.373527  
     783A      4.387652   784A      4.392054   785A      4.411526  
     786A      4.423482   787A      4.433822   788A      4.437021  
     789A      4.441460   790A      4.454707   791A      4.456525  
     792A      4.463380   793A      4.467720   794A      4.471667  
     795A      4.478633   796A      4.484437   797A      4.506906  
     798A      4.513595   799A      4.519214   800A      4.532600  
     801A      4.539487   802A      4.542889   803A      4.558540  
     804A      4.565758   805A      4.568370   806A      4.581729  
     807A      4.587249   808A      4.612258   809A      4.616638  
     810A      4.621786   811A      4.630920   812A      4.636575  
     813A      4.662042   814A      4.669604   815A      4.674543  
     816A      4.687467   817A      4.695460   818A      4.708334  
     819A      4.711254   820A      4.719360   821A      4.733651  
     822A      4.750885   823A      4.759047   824A      4.773669  
     825A      4.786974   826A      4.793930   827A      4.803376  
     828A      4.813753   829A      4.815989   830A      4.827254  
     831A      4.841300   832A      4.859786   833A      4.868879  
     834A      4.871804   835A      4.885780   836A      4.888081  
     837A      4.895827   838A      4.910477   839A      4.917896  
     840A      4.920402   841A      4.932574   842A      4.940162  
     843A      4.952824   844A      4.954680   845A      4.966201  
     846A      4.971103   847A      4.974897   848A      4.981275  
     849A      4.989014   850A      4.998212   851A      5.011688  
     852A      5.014271   853A      5.026009   854A      5.061271  
     855A      5.066795   856A      5.076190   857A      5.084895  
     858A      5.093464   859A      5.097794   860A      5.108260  
     861A      5.122440   862A      5.122928   863A      5.136166  
     864A      5.144597   865A      5.150330   866A      5.170194  
     867A      5.180649   868A      5.182959   869A      5.208946  
     870A      5.222559   871A      5.231416   872A      5.245737  
     873A      5.249859   874A      5.253470   875A      5.276051  
     876A      5.276731   877A      5.287032   878A      5.298160  
     879A      5.312070   880A      5.319510   881A      5.323547  
     882A      5.332703   883A      5.348154   884A      5.371778  
     885A      5.381736   886A      5.391616   887A      5.394864  
     888A      5.406812   889A      5.421642   890A      5.425168  
     891A      5.439931   892A      5.456361   893A      5.470463  
     894A      5.479613   895A      5.505069   896A      5.513873  
     897A      5.519744   898A      5.523375   899A      5.543976  
     900A      5.563102   901A      5.577915   902A      5.590372  
     903A      5.592777   904A      5.604858   905A      5.613174  
     906A      5.623640   907A      5.632376   908A      5.650067  
     909A      5.664337   910A      5.679654   911A      5.691638  
     912A      5.698049   913A      5.709524   914A      5.722783  
     915A      5.745362   916A      5.766683   917A      5.769921  
     918A      5.841579   919A      5.854058   920A      5.863294  
     921A      5.872955   922A      5.881066   923A      5.886619  
     924A      5.906343   925A      5.938311   926A      5.965128  
     927A      5.992985   928A      6.012369   929A      6.034493  
     930A      6.043972   931A      6.058261   932A      6.068732  
     933A      6.102816   934A      6.110956   935A      6.146120  
     936A      6.150018   937A      6.176101   938A      6.183607  
     939A      6.226646   940A      6.237669   941A      6.266365  
     942A      6.287044   943A      6.319266   944A      6.327038  
     945A      6.332960   946A      6.346564   947A      6.393730  
     948A      6.402617   949A      6.416359   950A      6.439095  
     951A      6.536471   952A      6.540286   953A      6.559685  
     954A      6.573079   955A      6.609391   956A      6.617471  
     957A      6.649274   958A      6.717032   959A      6.744614  
     960A      6.754876   961A      6.760557   962A      6.767592  
     963A      6.779363   964A      6.787482   965A      6.803130  
     966A      6.823243   967A      6.836875   968A      6.840497  
     969A      6.862193   970A      6.868579   971A      6.881290  
     972A      6.904871   973A      6.908349   974A      6.969028  
     975A      6.993239   976A      7.002045   977A      7.008146  
     978A      7.018652   979A      7.050109   980A      7.051152  
     981A      7.054832   982A      7.061310   983A      7.069482  
     984A      7.079458   985A      7.104357   986A      7.114895  
     987A      7.163215   988A      7.176465   989A      7.197288  
     990A      7.203738   991A      7.206266   992A      7.265391  
     993A      7.283081   994A      7.324587   995A      7.330452  
     996A      7.340546   997A      7.378878   998A      7.387264  
     999A      7.406578  1000A      7.407753  1001A      7.423779  
    1002A      7.436351  1003A      7.443825  1004A      7.444501  
    1005A      7.467442  1006A      7.478723  1007A      7.486028  
    1008A      7.497310  1009A      7.530988  1010A      7.552278  
    1011A      7.563425  1012A      7.576048  1013A      7.589412  
    1014A      7.606513  1015A      7.620129  1016A      7.632388  
    1017A      7.667521  1018A      7.688445  1019A      7.705246  
    1020A      7.723049  1021A      7.742349  1022A      7.758383  
    1023A      7.770335  1024A      7.777124  1025A      7.783388  
    1026A      7.818042  1027A      7.880026  1028A      7.917308  
    1029A      7.919312  1030A      7.938252  1031A      7.945949  
    1032A      7.961444  1033A      7.966979  1034A      7.981444  
    1035A      8.016888  1036A      8.051063  1037A      8.121653  
    1038A      8.172137  1039A      8.361553  1040A      8.378941  
    1041A      8.740072  1042A      8.771944  1043A     15.344396  
    1044A     15.482707  1045A     15.832772  1046A     15.880883  
    1047A     16.823378  1048A     16.905715  1049A     17.070981  
    1050A     17.552906  1051A     18.206833  1052A     18.331668  
    1053A     18.465223  1054A     18.620955  1055A     19.647518  
    1056A     19.834099  1057A     21.006226  1058A     21.353167  

    Final Occupation by Irrep:
              A 
    DOCC [    62 ]

  Energy converged.

  @DF-RHF Final Energy:  -869.44011524945597

   => Energetics <=

    Nuclear Repulsion Energy =           1089.6016289307808620
    One-Electron Energy =               -3357.3450960746408782
    Two-Electron Energy =                1398.3033518944039315
    Total Energy =                       -869.4401152494560847



Properties will be evaluated at   0.000000,   0.000000,   0.000000 Bohr

Properties computed using the SCF density matrix

  Nuclear Dipole Moment: (a.u.)
     X:     6.4283      Y:     6.0223      Z:    -0.7176

  Electronic Dipole Moment: (a.u.)
     X:    -4.3603      Y:    -4.8255      Z:     2.5047

  Dipole Moment: (a.u.)
     X:     2.0680      Y:     1.1969      Z:     1.7872     Total:     2.9838

  Dipole Moment: (Debye)
     X:     5.2565      Y:     3.0421      Z:     4.5425     Total:     7.5842


*** tstop() called on hex15 at Thu Mar  1 18:39:28 2018
Module time:
	user time   =     436.11 seconds =       7.27 minutes
	system time =       6.43 seconds =       0.11 minutes
	total time  =        145 seconds =       2.42 minutes
Total time:
	user time   =     436.11 seconds =       7.27 minutes
	system time =       6.43 seconds =       0.11 minutes
	total time  =        145 seconds =       2.42 minutes

*** Psi4 exiting successfully. Buy a developer a beer!
