
    -----------------------------------------------------------------------
          Psi4: An Open-Source Ab Initio Electronic Structure Package
                               Psi4 1.2a1.dev875 

                         Git: Rev {symm_JK} 0ea9481 dirty


    R. M. Parrish, L. A. Burns, D. G. A. Smith, A. C. Simmonett,
    A. E. DePrince III, E. G. Hohenstein, U. Bozkaya, A. Yu. Sokolov,
    R. Di Remigio, R. M. Richard, J. F. Gonthier, A. M. James,
    H. R. McAlexander, A. Kumar, M. Saitow, X. Wang, B. P. Pritchard,
    P. Verma, H. F. Schaefer III, K. Patkowski, R. A. King, E. F. Valeev,
    F. A. Evangelista, J. M. Turney, T. D. Crawford, and C. D. Sherrill,
    J. Chem. Theory Comput. 13(7) pp 3185--3197 (2017).
    (doi: 10.1021/acs.jctc.7b00174)

    -----------------------------------------------------------------------


    Psi4 started on: Thursday, 01 March 2018 06:39PM

    Process ID:  32172
    PSIDATADIR: /theoryfs2/ds/schieber/Gits/mspsi4/objdir3/stage/usr/local/psi4/share/psi4
    Memory:     500.0 MiB
    Threads:    6
    
  ==> Input File <==

--------------------------------------------------------------------------
memory 60 Gb

molecule protein_39 {
0 1
 N   18.626  30.444   6.627
 C   17.853  29.516   5.837
 C   16.945  30.292   4.886
 O   15.843  30.678   5.237
 C   17.047  28.642   6.811
 C   16.316  27.513   6.146
 O   16.236  27.458   4.905
 O   15.762  26.696   6.882
 N   17.407  27.054  -1.437
 C   17.227  26.751  -0.026
 C   18.555  26.446   0.653
 O   19.003  25.309   0.692
 C   16.258  25.572   0.084
 C   15.759  25.336   1.493
 O   16.399  25.780   2.453
 O   14.731  24.675   1.645
 N   19.106  26.199   3.688
 C   18.957  25.372   4.876
 C   18.845  23.903   4.520
 O   18.660  23.054   5.417
 H   18.180  30.990   7.295
 H   18.510  28.835   5.249
 H   16.336  29.276   7.377
 H   17.778  28.186   7.516
 H   15.845  26.702   7.843
 H   17.860  26.421  -2.023
 H   16.724  27.595   0.500
 H   16.724  24.663  -0.337
 H   15.363  25.845  -0.519
 H   16.737  25.171   3.109
 H   18.314  26.771   3.377
 H   18.015  25.631   5.391
 H   19.792  25.567   5.577
 H   19.646  30.419   6.619
 H   17.295  30.415   3.850
 H   16.947  27.858  -1.864
 H   19.060  27.284   1.155
 H   20.034  26.347   3.290
 H   18.824  23.654   3.449
}

set {
basis aug-cc-pvtz
scf_type df
guess sad
DF_SCF_TYPE SYMM_JK
}

energy('HF')
--------------------------------------------------------------------------

  Memory set to  55.879 GiB by Python driver.

*** tstart() called on hex15
*** at Thu Mar  1 18:39:29 2018

   => Loading Basis Set <=

    Name: AUG-CC-PVTZ
    Role: ORBITAL
    Keyword: BASIS
    atoms 1, 9, 17                      entry N          line   281 file /theoryfs2/ds/schieber/Gits/mspsi4/objdir3/stage/usr/local/psi4/share/psi4/basis/aug-cc-pvtz.gbs 
    atoms 2-3, 5-6, 10-11, 13-14, 18-19 entry C          line   235 file /theoryfs2/ds/schieber/Gits/mspsi4/objdir3/stage/usr/local/psi4/share/psi4/basis/aug-cc-pvtz.gbs 
    atoms 4, 7-8, 12, 15-16, 20         entry O          line   327 file /theoryfs2/ds/schieber/Gits/mspsi4/objdir3/stage/usr/local/psi4/share/psi4/basis/aug-cc-pvtz.gbs 
    atoms 21-39                         entry H          line    36 file /theoryfs2/ds/schieber/Gits/mspsi4/objdir3/stage/usr/local/psi4/share/psi4/basis/aug-cc-pvtz.gbs 


         ---------------------------------------------------------
                                   SCF
            by Justin Turney, Rob Parrish, Andy Simmonett
                             and Daniel Smith
                              RHF Reference
                        6 Threads,  57220 MiB Core
         ---------------------------------------------------------

  ==> Geometry <==

    Molecular point group: c1
    Full point group: C1

    Geometry (in Angstrom), charge = 0, multiplicity = 1:

       Center              X                  Y                   Z               Mass       
    ------------   -----------------  -----------------  -----------------  -----------------
           N          1.351848201903     3.618071616974     3.042782948432    14.003074004780
           C          0.578848201903     2.690071616974     2.252782948432    12.000000000000
           C         -0.329151798097     3.466071616974     1.301782948432    12.000000000000
           O         -1.431151798097     3.852071616974     1.652782948432    15.994914619560
           C         -0.227151798097     1.816071616974     3.226782948432    12.000000000000
           C         -0.958151798097     0.687071616974     2.561782948432    12.000000000000
           O         -1.038151798097     0.632071616974     1.320782948432    15.994914619560
           O         -1.512151798097    -0.129928383026     3.297782948432    15.994914619560
           N          0.132848201903     0.228071616974    -5.021217051568    14.003074004780
           C         -0.047151798097    -0.074928383026    -3.610217051568    12.000000000000
           C          1.280848201903    -0.379928383026    -2.931217051568    12.000000000000
           O          1.728848201903    -1.516928383026    -2.892217051568    15.994914619560
           C         -1.016151798097    -1.253928383026    -3.500217051568    12.000000000000
           C         -1.515151798097    -1.489928383026    -2.091217051568    12.000000000000
           O         -0.875151798097    -1.045928383026    -1.131217051568    15.994914619560
           O         -2.543151798097    -2.150928383026    -1.939217051568    15.994914619560
           N          1.831848201903    -0.626928383026     0.103782948432    14.003074004780
           C          1.682848201903    -1.453928383026     1.291782948432    12.000000000000
           C          1.570848201903    -2.922928383026     0.935782948432    12.000000000000
           O          1.385848201903    -3.771928383026     1.832782948432    15.994914619560
           H          0.905848201903     4.164071616974     3.710782948432     1.007825032070
           H          1.235848201903     2.009071616974     1.664782948432     1.007825032070
           H         -0.938151798097     2.450071616974     3.792782948432     1.007825032070
           H          0.503848201903     1.360071616974     3.931782948432     1.007825032070
           H         -1.429151798097    -0.123928383026     4.258782948432     1.007825032070
           H          0.585848201903    -0.404928383026    -5.607217051568     1.007825032070
           H         -0.550151798097     0.769071616974    -3.084217051568     1.007825032070
           H         -0.550151798097    -2.162928383026    -3.921217051568     1.007825032070
           H         -1.911151798097    -0.980928383026    -4.103217051568     1.007825032070
           H         -0.537151798097    -1.654928383026    -0.475217051568     1.007825032070
           H          1.039848201903    -0.054928383026    -0.207217051568     1.007825032070
           H          0.740848201903    -1.194928383026     1.806782948432     1.007825032070
           H          2.517848201903    -1.258928383026     1.992782948432     1.007825032070
           H          2.371848201903     3.593071616974     3.034782948432     1.007825032070
           H          0.020848201903     3.589071616974     0.265782948432     1.007825032070
           H         -0.327151798097     1.032071616974    -5.448217051568     1.007825032070
           H          1.785848201903     0.458071616974    -2.429217051568     1.007825032070
           H          2.759848201903    -0.478928383026    -0.294217051568     1.007825032070
           H          1.549848201903    -3.171928383026    -0.135217051568     1.007825032070

  Running in c1 symmetry.

  Rotational constants: A =      0.01135  B =      0.00596  C =      0.00509 [cm^-1]
  Rotational constants: A =    340.34658  B =    178.57705  C =    152.51078 [MHz]
  Nuclear repulsion = 1638.269612368452044

  Charge       = 0
  Multiplicity = 1
  Electrons    = 156
  Nalpha       = 78
  Nbeta        = 78

  ==> Algorithm <==

  SCF Algorithm Type is DF.
  DIIS enabled.
  MOM disabled.
  Fractional occupation disabled.
  Guess Type is SAD.
  Energy threshold   = 1.00e-06
  Density threshold  = 1.00e-06
  Integral threshold = 0.00e+00

  ==> Primary Basis <==

  Basis Set: AUG-CC-PVTZ
    Blend: AUG-CC-PVTZ
    Number of shells: 451
    Number of basis function: 1357
    Number of Cartesian functions: 1575
    Spherical Harmonics?: true
    Max angular momentum: 3

   => Loading Basis Set <=

    Name: (AUG-CC-PVTZ AUX)
    Role: JKFIT
    Keyword: DF_BASIS_SCF
    atoms 1, 9, 17                      entry N          line   224 file /theoryfs2/ds/schieber/Gits/mspsi4/objdir3/stage/usr/local/psi4/share/psi4/basis/aug-cc-pvtz-jkfit.gbs 
    atoms 2-3, 5-6, 10-11, 13-14, 18-19 entry C          line   162 file /theoryfs2/ds/schieber/Gits/mspsi4/objdir3/stage/usr/local/psi4/share/psi4/basis/aug-cc-pvtz-jkfit.gbs 
    atoms 4, 7-8, 12, 15-16, 20         entry O          line   286 file /theoryfs2/ds/schieber/Gits/mspsi4/objdir3/stage/usr/local/psi4/share/psi4/basis/aug-cc-pvtz-jkfit.gbs 
    atoms 21-39                         entry H          line    70 file /theoryfs2/ds/schieber/Gits/mspsi4/objdir3/stage/usr/local/psi4/share/psi4/basis/aug-cc-pvtz-jkfit.gbs 

  ==> Pre-Iterations <==

   -------------------------------------------------------
    Irrep   Nso     Nmo     Nalpha   Nbeta   Ndocc  Nsocc
   -------------------------------------------------------
     A       1357    1357       0       0       0       0
   -------------------------------------------------------
    Total    1357    1357      78      78      78       0
   -------------------------------------------------------

  ==> Integral Setup <==


    ==> DF_Helper <==
      nao           = 1357
      naux          = 2954
      Scwarz cutoff = 1.000000E-12
      mem (doubles) = 5625000000
      nthreads      = 6
      Algorithm     = STORE
      AO_core?      = 1
      MO_core?      = 0
      hold metric   = 0
      metric power  = -5.000000E-01
  Fitting condition = 1.000000E-12
  Mask sparsity (%) = (21.888415)


  Minimum eigenvalue in the overlap matrix is 1.7881981820E-06.
  Using Symmetric Orthogonalization.

  SCF Guess: Superposition of Atomic Densities via on-the-fly atomic UHF.

  ==> Iterations <==

                           Total Energy        Delta E     RMS |[F,P]|

   @DF-RHF iter   0: -1084.62916756857976   -1.08463e+03   1.49111e-02 
   @DF-RHF iter   1: -1076.67438996897954    7.95478e+00   2.03725e-03 
   @DF-RHF iter   2: -1077.13808443681000   -4.63694e-01   1.49933e-03 DIIS
   @DF-RHF iter   3: -1077.40465404255292   -2.66570e-01   2.93009e-04 DIIS
   @DF-RHF iter   4: -1077.42993486453156   -2.52808e-02   1.09998e-04 DIIS
   @DF-RHF iter   5: -1077.43392648307781   -3.99162e-03   4.84682e-05 DIIS
   @DF-RHF iter   6: -1077.43488091556628   -9.54432e-04   2.21722e-05 DIIS
   @DF-RHF iter   7: -1077.43511714057513   -2.36225e-04   9.44410e-06 DIIS
   @DF-RHF iter   8: -1077.43515582474788   -3.86842e-05   3.43811e-06 DIIS
   @DF-RHF iter   9: -1077.43516197667009   -6.15192e-06   1.23102e-06 DIIS
   @DF-RHF iter  10: -1077.43516303568185   -1.05901e-06   5.59939e-07 DIIS
   @DF-RHF iter  11: -1077.43516330671150   -2.71030e-07   2.76462e-07 DIIS

  ==> Post-Iterations <==

    Orbital Energies (a.u.)
    -----------------------

    Doubly Occupied:                                                      

       1A    -20.648757     2A    -20.605536     3A    -20.570982  
       4A    -20.564871     5A    -20.562639     6A    -20.543712  
       7A    -20.518261     8A    -15.563369     9A    -15.555687  
      10A    -15.552897    11A    -11.399896    12A    -11.368022  
      13A    -11.346750    14A    -11.341280    15A    -11.338624  
      16A    -11.300207    17A    -11.292648    18A    -11.285279  
      19A    -11.268019    20A    -11.240199    21A     -1.531183  
      22A     -1.501113    23A     -1.399386    24A     -1.395346  
      25A     -1.371272    26A     -1.360758    27A     -1.334533  
      28A     -1.217740    29A     -1.204763    30A     -1.188774  
      31A     -1.058976    32A     -1.045348    33A     -0.968039  
      34A     -0.953237    35A     -0.939116    36A     -0.909630  
      37A     -0.876775    38A     -0.812282    39A     -0.806077  
      40A     -0.797403    41A     -0.751052    42A     -0.733954  
      43A     -0.721768    44A     -0.708777    45A     -0.697417  
      46A     -0.695415    47A     -0.690940    48A     -0.688307  
      49A     -0.668597    50A     -0.663942    51A     -0.662065  
      52A     -0.655289    53A     -0.646717    54A     -0.634151  
      55A     -0.632725    56A     -0.631465    57A     -0.624304  
      58A     -0.593232    59A     -0.580830    60A     -0.576550  
      61A     -0.565687    62A     -0.560332    63A     -0.534764  
      64A     -0.531916    65A     -0.522628    66A     -0.518507  
      67A     -0.507918    68A     -0.491412    69A     -0.477197  
      70A     -0.465232    71A     -0.458188    72A     -0.449926  
      73A     -0.447560    74A     -0.446047    75A     -0.436519  
      76A     -0.389533    77A     -0.385044    78A     -0.379419  

    Virtual:                                                              

      79A      0.010902    80A      0.017554    81A      0.024365  
      82A      0.030082    83A      0.035083    84A      0.039156  
      85A      0.046156    86A      0.047281    87A      0.049992  
      88A      0.056578    89A      0.058105    90A      0.062112  
      91A      0.068196    92A      0.069486    93A      0.072940  
      94A      0.076347    95A      0.080285    96A      0.084828  
      97A      0.090082    98A      0.091075    99A      0.094148  
     100A      0.096958   101A      0.098451   102A      0.102217  
     103A      0.105406   104A      0.107467   105A      0.109955  
     106A      0.117812   107A      0.118419   108A      0.123153  
     109A      0.126039   110A      0.126998   111A      0.131038  
     112A      0.132191   113A      0.133591   114A      0.133874  
     115A      0.137500   116A      0.141190   117A      0.141597  
     118A      0.143527   119A      0.144318   120A      0.148013  
     121A      0.150041   122A      0.152143   123A      0.154843  
     124A      0.156852   125A      0.159292   126A      0.163887  
     127A      0.164525   128A      0.168503   129A      0.172692  
     130A      0.175208   131A      0.178204   132A      0.181784  
     133A      0.184975   134A      0.187219   135A      0.189627  
     136A      0.191572   137A      0.195244   138A      0.197978  
     139A      0.200748   140A      0.202529   141A      0.206523  
     142A      0.211878   143A      0.213367   144A      0.216395  
     145A      0.224007   146A      0.224901   147A      0.228002  
     148A      0.231821   149A      0.234884   150A      0.238414  
     151A      0.242375   152A      0.243514   153A      0.247931  
     154A      0.250426   155A      0.253425   156A      0.256992  
     157A      0.258413   158A      0.265946   159A      0.266993  
     160A      0.270615   161A      0.271837   162A      0.275551  
     163A      0.281237   164A      0.281830   165A      0.288072  
     166A      0.289142   167A      0.290842   168A      0.294849  
     169A      0.296270   170A      0.299130   171A      0.302368  
     172A      0.305373   173A      0.308279   174A      0.310107  
     175A      0.312343   176A      0.313235   177A      0.318225  
     178A      0.318818   179A      0.320168   180A      0.322701  
     181A      0.323902   182A      0.325213   183A      0.327749  
     184A      0.330717   185A      0.334381   186A      0.337950  
     187A      0.340288   188A      0.342897   189A      0.348565  
     190A      0.350655   191A      0.352837   192A      0.354149  
     193A      0.357036   194A      0.360404   195A      0.362376  
     196A      0.364561   197A      0.368361   198A      0.373258  
     199A      0.376624   200A      0.377579   201A      0.379426  
     202A      0.381971   203A      0.384544   204A      0.390768  
     205A      0.391908   206A      0.395202   207A      0.397639  
     208A      0.400839   209A      0.405344   210A      0.406201  
     211A      0.410399   212A      0.411599   213A      0.412802  
     214A      0.415964   215A      0.417233   216A      0.420183  
     217A      0.422723   218A      0.423014   219A      0.427834  
     220A      0.429194   221A      0.431057   222A      0.433807  
     223A      0.437249   224A      0.439812   225A      0.447868  
     226A      0.448804   227A      0.450814   228A      0.452798  
     229A      0.454758   230A      0.460846   231A      0.462253  
     232A      0.464194   233A      0.468746   234A      0.473649  
     235A      0.475617   236A      0.479135   237A      0.482117  
     238A      0.483440   239A      0.489144   240A      0.492296  
     241A      0.493633   242A      0.495327   243A      0.498938  
     244A      0.504557   245A      0.505019   246A      0.508881  
     247A      0.511057   248A      0.512943   249A      0.515462  
     250A      0.518068   251A      0.519755   252A      0.521508  
     253A      0.526325   254A      0.527208   255A      0.530360  
     256A      0.534653   257A      0.536297   258A      0.540084  
     259A      0.541247   260A      0.545026   261A      0.549154  
     262A      0.550539   263A      0.553671   264A      0.556156  
     265A      0.558896   266A      0.561990   267A      0.568497  
     268A      0.569904   269A      0.571324   270A      0.575454  
     271A      0.579765   272A      0.581734   273A      0.587291  
     274A      0.589336   275A      0.593438   276A      0.597172  
     277A      0.599019   278A      0.601419   279A      0.602935  
     280A      0.604581   281A      0.608039   282A      0.613519  
     283A      0.615720   284A      0.619593   285A      0.622470  
     286A      0.628211   287A      0.630125   288A      0.635919  
     289A      0.637654   290A      0.639134   291A      0.640602  
     292A      0.645793   293A      0.647250   294A      0.648834  
     295A      0.652760   296A      0.655416   297A      0.658853  
     298A      0.660687   299A      0.665376   300A      0.670287  
     301A      0.672373   302A      0.674946   303A      0.676948  
     304A      0.680670   305A      0.684753   306A      0.687157  
     307A      0.688576   308A      0.692795   309A      0.696753  
     310A      0.700467   311A      0.700813   312A      0.708125  
     313A      0.711992   314A      0.718329   315A      0.721109  
     316A      0.722371   317A      0.725648   318A      0.726899  
     319A      0.730173   320A      0.734364   321A      0.738585  
     322A      0.742180   323A      0.748703   324A      0.751713  
     325A      0.757688   326A      0.760134   327A      0.767257  
     328A      0.771292   329A      0.772031   330A      0.776970  
     331A      0.780112   332A      0.785667   333A      0.787030  
     334A      0.788807   335A      0.790588   336A      0.799070  
     337A      0.802615   338A      0.804817   339A      0.812043  
     340A      0.812366   341A      0.816673   342A      0.819795  
     343A      0.824436   344A      0.825641   345A      0.828585  
     346A      0.832844   347A      0.836709   348A      0.839323  
     349A      0.841162   350A      0.846149   351A      0.851567  
     352A      0.856545   353A      0.857144   354A      0.862254  
     355A      0.865888   356A      0.870693   357A      0.873103  
     358A      0.876651   359A      0.881587   360A      0.889610  
     361A      0.891177   362A      0.897935   363A      0.899934  
     364A      0.902316   365A      0.903782   366A      0.907552  
     367A      0.914579   368A      0.915992   369A      0.919388  
     370A      0.925342   371A      0.927990   372A      0.928659  
     373A      0.932524   374A      0.936315   375A      0.939269  
     376A      0.943212   377A      0.945875   378A      0.949063  
     379A      0.953886   380A      0.957084   381A      0.958524  
     382A      0.961318   383A      0.968783   384A      0.970140  
     385A      0.971856   386A      0.973369   387A      0.974750  
     388A      0.983703   389A      0.984176   390A      0.985723  
     391A      0.989297   392A      0.995935   393A      0.996501  
     394A      1.001403   395A      1.002296   396A      1.007095  
     397A      1.009120   398A      1.012440   399A      1.013884  
     400A      1.017705   401A      1.020437   402A      1.025827  
     403A      1.028020   404A      1.030992   405A      1.034300  
     406A      1.038159   407A      1.039872   408A      1.043020  
     409A      1.046924   410A      1.046974   411A      1.052185  
     412A      1.054506   413A      1.058123   414A      1.062766  
     415A      1.068086   416A      1.071140   417A      1.074741  
     418A      1.076934   419A      1.079206   420A      1.083088  
     421A      1.087501   422A      1.090995   423A      1.092750  
     424A      1.100486   425A      1.100977   426A      1.106539  
     427A      1.107094   428A      1.108883   429A      1.111171  
     430A      1.114456   431A      1.116874   432A      1.126204  
     433A      1.127312   434A      1.130522   435A      1.131593  
     436A      1.134667   437A      1.137037   438A      1.138796  
     439A      1.143834   440A      1.147260   441A      1.149920  
     442A      1.154104   443A      1.157127   444A      1.160826  
     445A      1.161590   446A      1.163155   447A      1.166009  
     448A      1.171473   449A      1.174767   450A      1.178610  
     451A      1.180237   452A      1.182865   453A      1.187624  
     454A      1.192204   455A      1.195637   456A      1.198427  
     457A      1.201407   458A      1.204255   459A      1.207565  
     460A      1.213105   461A      1.214519   462A      1.218401  
     463A      1.223472   464A      1.226753   465A      1.228300  
     466A      1.232064   467A      1.236349   468A      1.241203  
     469A      1.244815   470A      1.247169   471A      1.249924  
     472A      1.257881   473A      1.261454   474A      1.263769  
     475A      1.264988   476A      1.269157   477A      1.273711  
     478A      1.277111   479A      1.281864   480A      1.283596  
     481A      1.288323   482A      1.290702   483A      1.295535  
     484A      1.301613   485A      1.303095   486A      1.307119  
     487A      1.309775   488A      1.311487   489A      1.316754  
     490A      1.319236   491A      1.329571   492A      1.335463  
     493A      1.336631   494A      1.341555   495A      1.343573  
     496A      1.349584   497A      1.353612   498A      1.356617  
     499A      1.360526   500A      1.365735   501A      1.367487  
     502A      1.374606   503A      1.376203   504A      1.380847  
     505A      1.387898   506A      1.390060   507A      1.393249  
     508A      1.397794   509A      1.398322   510A      1.402214  
     511A      1.406996   512A      1.412687   513A      1.414557  
     514A      1.422467   515A      1.426079   516A      1.428622  
     517A      1.430188   518A      1.436445   519A      1.439275  
     520A      1.444031   521A      1.445841   522A      1.448824  
     523A      1.459122   524A      1.465832   525A      1.469414  
     526A      1.473309   527A      1.476028   528A      1.477689  
     529A      1.483593   530A      1.488339   531A      1.489176  
     532A      1.493916   533A      1.499114   534A      1.503592  
     535A      1.505385   536A      1.512177   537A      1.514909  
     538A      1.516869   539A      1.520257   540A      1.524507  
     541A      1.528366   542A      1.533494   543A      1.539865  
     544A      1.542722   545A      1.544964   546A      1.549747  
     547A      1.552383   548A      1.554566   549A      1.560516  
     550A      1.562548   551A      1.563979   552A      1.570312  
     553A      1.572032   554A      1.574214   555A      1.579523  
     556A      1.580939   557A      1.583960   558A      1.590639  
     559A      1.595792   560A      1.599553   561A      1.601408  
     562A      1.604196   563A      1.607825   564A      1.614288  
     565A      1.616350   566A      1.620173   567A      1.625450  
     568A      1.627601   569A      1.632192   570A      1.644319  
     571A      1.644803   572A      1.648559   573A      1.649716  
     574A      1.661650   575A      1.665304   576A      1.668491  
     577A      1.675378   578A      1.680699   579A      1.682332  
     580A      1.690806   581A      1.694792   582A      1.698215  
     583A      1.699716   584A      1.703467   585A      1.704104  
     586A      1.712745   587A      1.717939   588A      1.724310  
     589A      1.724835   590A      1.730615   591A      1.733158  
     592A      1.738134   593A      1.742651   594A      1.745960  
     595A      1.750519   596A      1.760052   597A      1.761325  
     598A      1.766989   599A      1.772413   600A      1.776241  
     601A      1.780003   602A      1.786251   603A      1.786572  
     604A      1.788652   605A      1.793052   606A      1.797704  
     607A      1.800408   608A      1.803718   609A      1.809269  
     610A      1.817362   611A      1.821528   612A      1.824379  
     613A      1.830092   614A      1.832849   615A      1.838119  
     616A      1.839383   617A      1.846286   618A      1.847084  
     619A      1.848593   620A      1.854783   621A      1.859622  
     622A      1.861567   623A      1.875067   624A      1.875633  
     625A      1.877105   626A      1.880999   627A      1.884849  
     628A      1.890921   629A      1.893846   630A      1.896478  
     631A      1.907931   632A      1.910740   633A      1.914474  
     634A      1.917462   635A      1.924150   636A      1.927060  
     637A      1.930254   638A      1.939133   639A      1.939892  
     640A      1.944603   641A      1.947077   642A      1.954438  
     643A      1.960113   644A      1.964310   645A      1.968706  
     646A      1.969895   647A      1.974345   648A      1.980642  
     649A      1.986475   650A      1.992211   651A      1.996151  
     652A      1.999486   653A      2.006430   654A      2.013310  
     655A      2.016663   656A      2.023354   657A      2.030425  
     658A      2.037352   659A      2.041537   660A      2.047503  
     661A      2.051244   662A      2.055372   663A      2.057280  
     664A      2.061021   665A      2.063796   666A      2.066926  
     667A      2.079463   668A      2.084999   669A      2.093205  
     670A      2.098582   671A      2.105760   672A      2.113832  
     673A      2.116591   674A      2.122511   675A      2.126333  
     676A      2.134488   677A      2.138800   678A      2.142728  
     679A      2.153357   680A      2.156386   681A      2.160877  
     682A      2.162758   683A      2.169107   684A      2.177911  
     685A      2.179765   686A      2.185906   687A      2.192982  
     688A      2.194250   689A      2.205398   690A      2.210131  
     691A      2.217178   692A      2.222164   693A      2.227906  
     694A      2.234557   695A      2.236691   696A      2.245874  
     697A      2.248765   698A      2.256228   699A      2.259019  
     700A      2.269527   701A      2.273222   702A      2.275290  
     703A      2.286213   704A      2.291503   705A      2.297783  
     706A      2.302586   707A      2.311109   708A      2.312546  
     709A      2.319617   710A      2.320516   711A      2.323853  
     712A      2.332773   713A      2.346561   714A      2.347177  
     715A      2.351074   716A      2.356918   717A      2.359710  
     718A      2.373147   719A      2.378741   720A      2.385117  
     721A      2.392588   722A      2.398787   723A      2.405228  
     724A      2.411367   725A      2.415078   726A      2.427853  
     727A      2.430016   728A      2.430764   729A      2.438029  
     730A      2.451323   731A      2.458022   732A      2.462199  
     733A      2.463890   734A      2.474094   735A      2.480652  
     736A      2.483755   737A      2.489825   738A      2.497649  
     739A      2.500755   740A      2.509113   741A      2.514793  
     742A      2.518797   743A      2.523780   744A      2.532436  
     745A      2.534551   746A      2.543041   747A      2.546686  
     748A      2.557012   749A      2.557729   750A      2.559886  
     751A      2.565088   752A      2.566472   753A      2.575715  
     754A      2.576489   755A      2.586411   756A      2.587695  
     757A      2.599052   758A      2.603632   759A      2.607444  
     760A      2.617584   761A      2.619420   762A      2.623199  
     763A      2.625441   764A      2.628082   765A      2.634279  
     766A      2.646843   767A      2.654412   768A      2.656710  
     769A      2.663490   770A      2.665836   771A      2.684003  
     772A      2.686322   773A      2.690999   774A      2.696264  
     775A      2.705843   776A      2.707240   777A      2.715846  
     778A      2.725294   779A      2.727217   780A      2.740806  
     781A      2.743532   782A      2.746579   783A      2.749542  
     784A      2.754761   785A      2.758813   786A      2.765588  
     787A      2.774778   788A      2.776583   789A      2.781335  
     790A      2.793697   791A      2.800526   792A      2.805491  
     793A      2.807951   794A      2.818194   795A      2.821218  
     796A      2.824606   797A      2.832891   798A      2.835391  
     799A      2.844587   800A      2.851565   801A      2.858555  
     802A      2.865402   803A      2.872241   804A      2.878299  
     805A      2.895383   806A      2.899152   807A      2.903393  
     808A      2.907623   809A      2.916578   810A      2.919099  
     811A      2.923903   812A      2.933660   813A      2.935945  
     814A      2.945465   815A      2.955125   816A      2.958750  
     817A      2.973924   818A      2.974707   819A      2.986074  
     820A      2.993761   821A      2.996121   822A      3.003857  
     823A      3.017820   824A      3.020422   825A      3.032255  
     826A      3.033221   827A      3.040774   828A      3.055776  
     829A      3.059935   830A      3.067668   831A      3.077494  
     832A      3.083398   833A      3.090781   834A      3.098220  
     835A      3.108646   836A      3.115454   837A      3.118144  
     838A      3.129073   839A      3.132246   840A      3.144794  
     841A      3.150082   842A      3.155268   843A      3.176351  
     844A      3.181312   845A      3.186436   846A      3.198436  
     847A      3.210441   848A      3.231967   849A      3.234453  
     850A      3.239115   851A      3.243974   852A      3.261090  
     853A      3.278031   854A      3.285174   855A      3.306691  
     856A      3.317811   857A      3.329704   858A      3.333567  
     859A      3.347053   860A      3.354617   861A      3.373047  
     862A      3.379963   863A      3.392618   864A      3.406852  
     865A      3.417637   866A      3.443827   867A      3.448968  
     868A      3.465386   869A      3.470774   870A      3.484007  
     871A      3.487759   872A      3.490052   873A      3.503858  
     874A      3.513033   875A      3.518672   876A      3.533100  
     877A      3.534433   878A      3.543489   879A      3.551393  
     880A      3.560178   881A      3.573757   882A      3.583640  
     883A      3.589552   884A      3.607757   885A      3.613911  
     886A      3.619365   887A      3.630110   888A      3.634036  
     889A      3.648977   890A      3.654384   891A      3.655835  
     892A      3.664578   893A      3.667441   894A      3.689386  
     895A      3.693138   896A      3.694523   897A      3.703530  
     898A      3.716881   899A      3.723857   900A      3.725449  
     901A      3.733806   902A      3.744655   903A      3.753247  
     904A      3.763746   905A      3.774500   906A      3.783039  
     907A      3.788435   908A      3.793135   909A      3.801165  
     910A      3.814584   911A      3.825192   912A      3.829712  
     913A      3.836233   914A      3.843054   915A      3.846148  
     916A      3.857689   917A      3.864811   918A      3.870088  
     919A      3.874335   920A      3.877230   921A      3.878303  
     922A      3.884596   923A      3.890015   924A      3.898734  
     925A      3.910039   926A      3.919724   927A      3.921172  
     928A      3.931300   929A      3.938839   930A      3.949171  
     931A      3.953346   932A      3.958827   933A      3.968073  
     934A      3.975446   935A      3.983943   936A      3.991579  
     937A      3.997859   938A      4.000340   939A      4.010217  
     940A      4.020597   941A      4.022296   942A      4.029534  
     943A      4.045300   944A      4.048175   945A      4.055690  
     946A      4.058275   947A      4.066207   948A      4.075309  
     949A      4.080196   950A      4.083621   951A      4.086961  
     952A      4.096026   953A      4.107781   954A      4.108847  
     955A      4.115751   956A      4.122584   957A      4.126127  
     958A      4.137133   959A      4.142745   960A      4.147427  
     961A      4.152257   962A      4.156294   963A      4.163368  
     964A      4.164524   965A      4.178408   966A      4.180904  
     967A      4.192351   968A      4.196651   969A      4.207708  
     970A      4.218762   971A      4.226674   972A      4.230353  
     973A      4.237292   974A      4.243213   975A      4.252012  
     976A      4.256667   977A      4.260398   978A      4.264794  
     979A      4.271218   980A      4.278761   981A      4.285236  
     982A      4.292326   983A      4.299591   984A      4.304139  
     985A      4.310509   986A      4.316972   987A      4.321460  
     988A      4.323349   989A      4.331654   990A      4.335990  
     991A      4.338435   992A      4.343565   993A      4.350899  
     994A      4.356856   995A      4.363728   996A      4.364639  
     997A      4.371295   998A      4.384360   999A      4.390163  
    1000A      4.395149  1001A      4.398770  1002A      4.407548  
    1003A      4.411034  1004A      4.417954  1005A      4.418909  
    1006A      4.429557  1007A      4.441519  1008A      4.447435  
    1009A      4.451259  1010A      4.453877  1011A      4.464981  
    1012A      4.472864  1013A      4.476231  1014A      4.484445  
    1015A      4.486287  1016A      4.500236  1017A      4.501018  
    1018A      4.503515  1019A      4.507024  1020A      4.518440  
    1021A      4.526258  1022A      4.531274  1023A      4.537434  
    1024A      4.539720  1025A      4.543674  1026A      4.554279  
    1027A      4.560380  1028A      4.569869  1029A      4.572212  
    1030A      4.584337  1031A      4.592294  1032A      4.595977  
    1033A      4.607318  1034A      4.616813  1035A      4.623013  
    1036A      4.626219  1037A      4.638145  1038A      4.652278  
    1039A      4.652563  1040A      4.665101  1041A      4.673139  
    1042A      4.684521  1043A      4.688489  1044A      4.692378  
    1045A      4.705980  1046A      4.710729  1047A      4.714946  
    1048A      4.721277  1049A      4.734058  1050A      4.735788  
    1051A      4.744970  1052A      4.758106  1053A      4.765207  
    1054A      4.770844  1055A      4.780399  1056A      4.787423  
    1057A      4.794068  1058A      4.796165  1059A      4.802488  
    1060A      4.810087  1061A      4.812196  1062A      4.823532  
    1063A      4.830760  1064A      4.836822  1065A      4.847515  
    1066A      4.855217  1067A      4.861934  1068A      4.866132  
    1069A      4.880166  1070A      4.886279  1071A      4.892513  
    1072A      4.900490  1073A      4.903085  1074A      4.913602  
    1075A      4.923154  1076A      4.929063  1077A      4.931613  
    1078A      4.935774  1079A      4.945407  1080A      4.950316  
    1081A      4.958328  1082A      4.966044  1083A      4.971052  
    1084A      4.980220  1085A      4.986909  1086A      5.003069  
    1087A      5.005272  1088A      5.012402  1089A      5.013485  
    1090A      5.026639  1091A      5.032298  1092A      5.037761  
    1093A      5.050727  1094A      5.056235  1095A      5.061186  
    1096A      5.072061  1097A      5.074880  1098A      5.083156  
    1099A      5.090392  1100A      5.101766  1101A      5.106662  
    1102A      5.116697  1103A      5.121494  1104A      5.135318  
    1105A      5.139912  1106A      5.148467  1107A      5.154544  
    1108A      5.160242  1109A      5.167595  1110A      5.169426  
    1111A      5.186531  1112A      5.198265  1113A      5.203691  
    1114A      5.208902  1115A      5.220857  1116A      5.224266  
    1117A      5.228131  1118A      5.236636  1119A      5.244023  
    1120A      5.257469  1121A      5.270107  1122A      5.275151  
    1123A      5.279711  1124A      5.284669  1125A      5.295533  
    1126A      5.303504  1127A      5.319954  1128A      5.323484  
    1129A      5.330857  1130A      5.336680  1131A      5.337837  
    1132A      5.348028  1133A      5.363805  1134A      5.366200  
    1135A      5.375835  1136A      5.391267  1137A      5.397497  
    1138A      5.406033  1139A      5.414368  1140A      5.423154  
    1141A      5.424501  1142A      5.439496  1143A      5.440417  
    1144A      5.445716  1145A      5.464538  1146A      5.470083  
    1147A      5.482103  1148A      5.486818  1149A      5.487816  
    1150A      5.501806  1151A      5.525145  1152A      5.530261  
    1153A      5.535316  1154A      5.543884  1155A      5.551975  
    1156A      5.560817  1157A      5.572621  1158A      5.575801  
    1159A      5.586949  1160A      5.590203  1161A      5.606578  
    1162A      5.612409  1163A      5.620127  1164A      5.627109  
    1165A      5.630492  1166A      5.647043  1167A      5.654657  
    1168A      5.670201  1169A      5.679583  1170A      5.690001  
    1171A      5.693952  1172A      5.715574  1173A      5.720449  
    1174A      5.728265  1175A      5.733057  1176A      5.750878  
    1177A      5.755163  1178A      5.773901  1179A      5.778393  
    1180A      5.782672  1181A      5.809182  1182A      5.824031  
    1183A      5.858217  1184A      5.870923  1185A      5.884641  
    1186A      5.893726  1187A      5.901826  1188A      5.919083  
    1189A      5.925914  1190A      5.948150  1191A      5.965883  
    1192A      6.012909  1193A      6.020931  1194A      6.035262  
    1195A      6.041118  1196A      6.052806  1197A      6.064559  
    1198A      6.088831  1199A      6.093279  1200A      6.108675  
    1201A      6.127037  1202A      6.134143  1203A      6.157350  
    1204A      6.166288  1205A      6.175166  1206A      6.182823  
    1207A      6.197569  1208A      6.198985  1209A      6.221670  
    1210A      6.247784  1211A      6.257839  1212A      6.287527  
    1213A      6.305482  1214A      6.314792  1215A      6.320982  
    1216A      6.337283  1217A      6.356538  1218A      6.361894  
    1219A      6.370323  1220A      6.376025  1221A      6.387036  
    1222A      6.420012  1223A      6.437552  1224A      6.466704  
    1225A      6.505879  1226A      6.535643  1227A      6.561125  
    1228A      6.572319  1229A      6.589006  1230A      6.609665  
    1231A      6.618896  1232A      6.638742  1233A      6.652592  
    1234A      6.656488  1235A      6.688056  1236A      6.701981  
    1237A      6.706432  1238A      6.747046  1239A      6.765948  
    1240A      6.780286  1241A      6.797007  1242A      6.802828  
    1243A      6.826538  1244A      6.832857  1245A      6.859930  
    1246A      6.862328  1247A      6.872672  1248A      6.878900  
    1249A      6.913264  1250A      6.921602  1251A      6.926882  
    1252A      6.944757  1253A      6.962588  1254A      6.970263  
    1255A      6.977350  1256A      6.990312  1257A      6.998190  
    1258A      7.009943  1259A      7.012848  1260A      7.025804  
    1261A      7.041474  1262A      7.059374  1263A      7.064559  
    1264A      7.077259  1265A      7.079036  1266A      7.082960  
    1267A      7.098654  1268A      7.114794  1269A      7.136316  
    1270A      7.149611  1271A      7.169330  1272A      7.185161  
    1273A      7.209512  1274A      7.214485  1275A      7.231310  
    1276A      7.237245  1277A      7.242667  1278A      7.302328  
    1279A      7.323824  1280A      7.337274  1281A      7.344075  
    1282A      7.367875  1283A      7.374774  1284A      7.377616  
    1285A      7.390304  1286A      7.423803  1287A      7.428912  
    1288A      7.436224  1289A      7.467220  1290A      7.476314  
    1291A      7.480733  1292A      7.488316  1293A      7.493939  
    1294A      7.515961  1295A      7.531533  1296A      7.542948  
    1297A      7.544530  1298A      7.567617  1299A      7.583016  
    1300A      7.587435  1301A      7.607626  1302A      7.614100  
    1303A      7.639027  1304A      7.643655  1305A      7.663030  
    1306A      7.679693  1307A      7.687532  1308A      7.698405  
    1309A      7.712199  1310A      7.719512  1311A      7.747663  
    1312A      7.768448  1313A      7.778229  1314A      7.785087  
    1315A      7.788631  1316A      7.796202  1317A      7.835753  
    1318A      7.839437  1319A      7.892416  1320A      7.923380  
    1321A      7.927085  1322A      7.946168  1323A      7.949779  
    1324A      7.970471  1325A      7.984079  1326A      7.994873  
    1327A      8.004523  1328A      8.011335  1329A      8.046753  
    1330A      8.060054  1331A      8.078757  1332A      8.203007  
    1333A      8.239839  1334A      8.409594  1335A      8.425264  
    1336A      8.778318  1337A      8.788877  1338A     14.989210  
    1339A     15.603281  1340A     15.662962  1341A     15.987372  
    1342A     16.080875  1343A     17.074311  1344A     17.145205  
    1345A     17.325476  1346A     17.423575  1347A     17.873443  
    1348A     18.398454  1349A     18.551090  1350A     18.612596  
    1351A     18.773464  1352A     18.831168  1353A     19.820131  
    1354A     19.869187  1355A     20.159777  1356A     21.434101  
    1357A     21.900608  

    Final Occupation by Irrep:
              A 
    DOCC [    78 ]

  Energy converged.

  @DF-RHF Final Energy: -1077.43516330671150

   => Energetics <=

    Nuclear Repulsion Energy =           1638.2696123684520444
    One-Electron Energy =               -4734.6803319104237744
    Two-Electron Energy =                2018.9755562352604557
    Total Energy =                      -1077.4351633067115017



Properties will be evaluated at   0.000000,   0.000000,   0.000000 Bohr

Properties computed using the SCF density matrix

  Nuclear Dipole Moment: (a.u.)
     X:     9.1337      Y:     7.4118      Z:    -1.1525

  Electronic Dipole Moment: (a.u.)
     X:    -6.9451      Y:    -5.0788      Z:     2.0754

  Dipole Moment: (a.u.)
     X:     2.1886      Y:     2.3330      Z:     0.9229     Total:     3.3293

  Dipole Moment: (Debye)
     X:     5.5628      Y:     5.9299      Z:     2.3458     Total:     8.4623


*** tstop() called on hex15 at Thu Mar  1 18:45:54 2018
Module time:
	user time   =    1056.26 seconds =      17.60 minutes
	system time =      12.12 seconds =       0.20 minutes
	total time  =        385 seconds =       6.42 minutes
Total time:
	user time   =    1056.26 seconds =      17.60 minutes
	system time =      12.12 seconds =       0.20 minutes
	total time  =        385 seconds =       6.42 minutes

*** Psi4 exiting successfully. Buy a developer a beer!
