
    -----------------------------------------------------------------------
          Psi4: An Open-Source Ab Initio Electronic Structure Package
                               Psi4 1.2a1.dev875 

                         Git: Rev {symm_JK} 0ea9481 dirty


    R. M. Parrish, L. A. Burns, D. G. A. Smith, A. C. Simmonett,
    A. E. DePrince III, E. G. Hohenstein, U. Bozkaya, A. Yu. Sokolov,
    R. Di Remigio, R. M. Richard, J. F. Gonthier, A. M. James,
    H. R. McAlexander, A. Kumar, M. Saitow, X. Wang, B. P. Pritchard,
    P. Verma, H. F. Schaefer III, K. Patkowski, R. A. King, E. F. Valeev,
    F. A. Evangelista, J. M. Turney, T. D. Crawford, and C. D. Sherrill,
    J. Chem. Theory Comput. 13(7) pp 3185--3197 (2017).
    (doi: 10.1021/acs.jctc.7b00174)

    -----------------------------------------------------------------------


    Psi4 started on: Wednesday, 07 March 2018 04:55AM

    Process ID:  17117
    PSIDATADIR: /theoryfs2/ds/schieber/Gits/mspsi4/objdir3/stage/usr/local/psi4/share/psi4
    Memory:     500.0 MiB
    Threads:    6
    
  ==> Input File <==

--------------------------------------------------------------------------
memory 60 Gb

molecule protein_15 {
0 1
 N   17.407  27.054  -1.437
 C   17.227  26.751  -0.026
 C   18.555  26.446   0.653
 O   19.003  25.309   0.692
 C   16.258  25.572   0.084
 C   15.759  25.336   1.493
 O   16.399  25.780   2.453
 O   14.731  24.675   1.645
 H   17.860  26.421  -2.023
 H   16.724  27.595   0.500
 H   16.724  24.663  -0.337
 H   15.363  25.845  -0.519
 H   16.737  25.171   3.109
 H   16.947  27.858  -1.864
 H   19.060  27.284   1.155
}

set {
basis aug-cc-pvqz
scf_type df
guess sad
DF_SCF_TYPE DFJK
}

energy('HF')
--------------------------------------------------------------------------

  Memory set to  55.879 GiB by Python driver.

*** tstart() called on hex15
*** at Wed Mar  7 04:55:09 2018

   => Loading Basis Set <=

    Name: AUG-CC-PVQZ
    Role: ORBITAL
    Keyword: BASIS
    atoms 1        entry N          line   359 file /theoryfs2/ds/schieber/Gits/mspsi4/objdir3/stage/usr/local/psi4/share/psi4/basis/aug-cc-pvqz.gbs 
    atoms 2-3, 5-6 entry C          line   299 file /theoryfs2/ds/schieber/Gits/mspsi4/objdir3/stage/usr/local/psi4/share/psi4/basis/aug-cc-pvqz.gbs 
    atoms 4, 7-8   entry O          line   419 file /theoryfs2/ds/schieber/Gits/mspsi4/objdir3/stage/usr/local/psi4/share/psi4/basis/aug-cc-pvqz.gbs 
    atoms 9-15     entry H          line    36 file /theoryfs2/ds/schieber/Gits/mspsi4/objdir3/stage/usr/local/psi4/share/psi4/basis/aug-cc-pvqz.gbs 


         ---------------------------------------------------------
                                   SCF
            by Justin Turney, Rob Parrish, Andy Simmonett
                             and Daniel Smith
                              RHF Reference
                        6 Threads,  57220 MiB Core
         ---------------------------------------------------------

  ==> Geometry <==

    Molecular point group: c1
    Full point group: C1

    Geometry (in Angstrom), charge = 0, multiplicity = 1:

       Center              X                  Y                   Z               Mass       
    ------------   -----------------  -----------------  -----------------  -----------------
           N          0.493823883501     1.198273883779    -2.145822197285    14.003074004780
           C          0.313823883501     0.895273883779    -0.734822197285    12.000000000000
           C          1.641823883501     0.590273883779    -0.055822197285    12.000000000000
           O          2.089823883501    -0.546726116221    -0.016822197285    15.994914619560
           C         -0.655176116499    -0.283726116221    -0.624822197285    12.000000000000
           C         -1.154176116499    -0.519726116221     0.784177802715    12.000000000000
           O         -0.514176116499    -0.075726116221     1.744177802715    15.994914619560
           O         -2.182176116499    -1.180726116221     0.936177802715    15.994914619560
           H          0.946823883501     0.565273883779    -2.731822197285     1.007825032070
           H         -0.189176116499     1.739273883779    -0.208822197285     1.007825032070
           H         -0.189176116499    -1.192726116221    -1.045822197285     1.007825032070
           H         -1.550176116499    -0.010726116221    -1.227822197285     1.007825032070
           H         -0.176176116499    -0.684726116221     2.400177802715     1.007825032070
           H          0.033823883501     2.002273883779    -2.572822197285     1.007825032070
           H          2.146823883501     1.428273883779     0.446177802715     1.007825032070

  Running in c1 symmetry.

  Rotational constants: A =      0.10816  B =      0.04966  C =      0.03938 [cm^-1]
  Rotational constants: A =   3242.68280  B =   1488.90059  C =   1180.64051 [MHz]
  Nuclear repulsion =  383.662852131440786

  Charge       = 0
  Multiplicity = 1
  Electrons    = 62
  Nalpha       = 31
  Nbeta        = 31

  ==> Algorithm <==

  SCF Algorithm Type is DF.
  DIIS enabled.
  MOM disabled.
  Fractional occupation disabled.
  Guess Type is SAD.
  Energy threshold   = 1.00e-06
  Density threshold  = 1.00e-06
  Integral threshold = 0.00e+00

  ==> Primary Basis <==

  Basis Set: AUG-CC-PVQZ
    Blend: AUG-CC-PVQZ
    Number of shells: 258
    Number of basis function: 962
    Number of Cartesian functions: 1225
    Spherical Harmonics?: true
    Max angular momentum: 4

   => Loading Basis Set <=

    Name: (AUG-CC-PVQZ AUX)
    Role: JKFIT
    Keyword: DF_BASIS_SCF
    atoms 1        entry N          line   248 file /theoryfs2/ds/schieber/Gits/mspsi4/objdir3/stage/usr/local/psi4/share/psi4/basis/aug-cc-pvqz-jkfit.gbs 
    atoms 2-3, 5-6 entry C          line   178 file /theoryfs2/ds/schieber/Gits/mspsi4/objdir3/stage/usr/local/psi4/share/psi4/basis/aug-cc-pvqz-jkfit.gbs 
    atoms 4, 7-8   entry O          line   318 file /theoryfs2/ds/schieber/Gits/mspsi4/objdir3/stage/usr/local/psi4/share/psi4/basis/aug-cc-pvqz-jkfit.gbs 
    atoms 9-15     entry H          line    70 file /theoryfs2/ds/schieber/Gits/mspsi4/objdir3/stage/usr/local/psi4/share/psi4/basis/aug-cc-pvqz-jkfit.gbs 

  ==> Pre-Iterations <==

   -------------------------------------------------------
    Irrep   Nso     Nmo     Nalpha   Nbeta   Ndocc  Nsocc
   -------------------------------------------------------
     A        962     962       0       0       0       0
   -------------------------------------------------------
    Total     962     962      31      31      31       0
   -------------------------------------------------------

  ==> Integral Setup <==

  ==> DFJK: Density-Fitted J/K Matrices <==

    J tasked:                  Yes
    K tasked:                  Yes
    wK tasked:                  No
    OpenMP threads:              6
    Integrals threads:           6
    Memory (MB):             42915
    Algorithm:                Core
    Integral Cache:           NONE
    Schwarz Cutoff:          1E-12
    Fitting Condition:       1E-12

   => Auxiliary Basis Set <=

  Basis Set: (AUG-CC-PVQZ AUX)
    Blend: AUG-CC-PVQZ-JKFIT
    Number of shells: 398
    Number of basis function: 1668
    Number of Cartesian functions: 2291
    Spherical Harmonics?: true
    Max angular momentum: 5

  Minimum eigenvalue in the overlap matrix is 8.9427936810E-07.
  Using Symmetric Orthogonalization.

  SCF Guess: Superposition of Atomic Densities via on-the-fly atomic UHF.

  ==> Iterations <==

                           Total Energy        Delta E     RMS |[F,P]|

   @DF-RHF iter   0:  -437.33630998574256   -4.37336e+02   1.36740e-02 
   @DF-RHF iter   1:  -434.45275148963992    2.88356e+00   1.87633e-03 
   @DF-RHF iter   2:  -434.63465337707112   -1.81902e-01   1.33023e-03 DIIS
   @DF-RHF iter   3:  -434.73029603974277   -9.56427e-02   2.82905e-04 DIIS
   @DF-RHF iter   4:  -434.74059683533284   -1.03008e-02   1.05144e-04 DIIS
   @DF-RHF iter   5:  -434.74265622957643   -2.05939e-03   4.60173e-05 DIIS
   @DF-RHF iter   6:  -434.74333337319109   -6.77144e-04   2.15774e-05 DIIS
   @DF-RHF iter   7:  -434.74353022026287   -1.96847e-04   8.64707e-06 DIIS
   @DF-RHF iter   8:  -434.74355994452577   -2.97243e-05   3.72127e-06 DIIS
   @DF-RHF iter   9:  -434.74356528093494   -5.33641e-06   1.62644e-06 DIIS
   @DF-RHF iter  10:  -434.74356638466674   -1.10373e-06   5.83824e-07 DIIS
   @DF-RHF iter  11:  -434.74356651251014   -1.27843e-07   2.77829e-07 DIIS

  ==> Post-Iterations <==

    Orbital Energies (a.u.)
    -----------------------

    Doubly Occupied:                                                      

       1A    -20.618370     2A    -20.571165     3A    -20.527408  
       4A    -15.556567     5A    -11.378059     6A    -11.346663  
       7A    -11.295108     8A    -11.245564     9A     -1.513897  
      10A     -1.400651    11A     -1.345551    12A     -1.207530  
      13A     -1.050959    14A     -0.943538    15A     -0.886514  
      16A     -0.799896    17A     -0.737015    18A     -0.709265  
      19A     -0.702504    20A     -0.669930    21A     -0.662813  
      22A     -0.636467    23A     -0.629217    24A     -0.568698  
      25A     -0.537469    26A     -0.527821    27A     -0.515239  
      28A     -0.468168    29A     -0.455361    30A     -0.445024  
      31A     -0.383403  

    Virtual:                                                              

      32A      0.018655    33A      0.026666    34A      0.032241  
      35A      0.035781    36A      0.047957    37A      0.051994  
      38A      0.056558    39A      0.071844    40A      0.076017  
      41A      0.083727    42A      0.096493    43A      0.099183  
      44A      0.099933    45A      0.103378    46A      0.105895  
      47A      0.109273    48A      0.113855    49A      0.117401  
      50A      0.120607    51A      0.122497    52A      0.133620  
      53A      0.140074    54A      0.143338    55A      0.151104  
      56A      0.158170    57A      0.162210    58A      0.171978  
      59A      0.173617    60A      0.181133    61A      0.188928  
      62A      0.197655    63A      0.204115    64A      0.213961  
      65A      0.220076    66A      0.224959    67A      0.226744  
      68A      0.231851    69A      0.238132    70A      0.240581  
      71A      0.251145    72A      0.252818    73A      0.258777  
      74A      0.260984    75A      0.267353    76A      0.268734  
      77A      0.277908    78A      0.281829    79A      0.283762  
      80A      0.292515    81A      0.294562    82A      0.300591  
      83A      0.305136    84A      0.314413    85A      0.319618  
      86A      0.330263    87A      0.331519    88A      0.337507  
      89A      0.340742    90A      0.345036    91A      0.347233  
      92A      0.356140    93A      0.359120    94A      0.363162  
      95A      0.369586    96A      0.373858    97A      0.380127  
      98A      0.386497    99A      0.389525   100A      0.400229  
     101A      0.406774   102A      0.413457   103A      0.420175  
     104A      0.425712   105A      0.429802   106A      0.433351  
     107A      0.439232   108A      0.442163   109A      0.446644  
     110A      0.448405   111A      0.458627   112A      0.461662  
     113A      0.465323   114A      0.474991   115A      0.477222  
     116A      0.483729   117A      0.490018   118A      0.492643  
     119A      0.501372   120A      0.506129   121A      0.514825  
     122A      0.521303   123A      0.530169   124A      0.532096  
     125A      0.536267   126A      0.543877   127A      0.552260  
     128A      0.561419   129A      0.563829   130A      0.577658  
     131A      0.584572   132A      0.595975   133A      0.597905  
     134A      0.599760   135A      0.611805   136A      0.616987  
     137A      0.629879   138A      0.635635   139A      0.640965  
     140A      0.645589   141A      0.654413   142A      0.660360  
     143A      0.668647   144A      0.674288   145A      0.680540  
     146A      0.683871   147A      0.689751   148A      0.693637  
     149A      0.706337   150A      0.707509   151A      0.718250  
     152A      0.724801   153A      0.726115   154A      0.731609  
     155A      0.733282   156A      0.741108   157A      0.743914  
     158A      0.758034   159A      0.760884   160A      0.764909  
     161A      0.767870   162A      0.774696   163A      0.789101  
     164A      0.790876   165A      0.795267   166A      0.798565  
     167A      0.809898   168A      0.812338   169A      0.817300  
     170A      0.825017   171A      0.828379   172A      0.832150  
     173A      0.836923   174A      0.843535   175A      0.853169  
     176A      0.856437   177A      0.866134   178A      0.872421  
     179A      0.874697   180A      0.879756   181A      0.883906  
     182A      0.893245   183A      0.896341   184A      0.906442  
     185A      0.912313   186A      0.918019   187A      0.929324  
     188A      0.936580   189A      0.940512   190A      0.946364  
     191A      0.949254   192A      0.958757   193A      0.964741  
     194A      0.969304   195A      0.977948   196A      0.982586  
     197A      0.996013   198A      1.002580   199A      1.004176  
     200A      1.013024   201A      1.023915   202A      1.028301  
     203A      1.031022   204A      1.037052   205A      1.045722  
     206A      1.047477   207A      1.061328   208A      1.069909  
     209A      1.071368   210A      1.087100   211A      1.098105  
     212A      1.104897   213A      1.109470   214A      1.111506  
     215A      1.123721   216A      1.132837   217A      1.139527  
     218A      1.144951   219A      1.151579   220A      1.155884  
     221A      1.161521   222A      1.177779   223A      1.183369  
     224A      1.192346   225A      1.193266   226A      1.195746  
     227A      1.222363   228A      1.226715   229A      1.232907  
     230A      1.238182   231A      1.242286   232A      1.249452  
     233A      1.257355   234A      1.264581   235A      1.271728  
     236A      1.283798   237A      1.290058   238A      1.294002  
     239A      1.309774   240A      1.318316   241A      1.325398  
     242A      1.341729   243A      1.349280   244A      1.358069  
     245A      1.362854   246A      1.370018   247A      1.381394  
     248A      1.389083   249A      1.412236   250A      1.418619  
     251A      1.430012   252A      1.442082   253A      1.455906  
     254A      1.461499   255A      1.470759   256A      1.479191  
     257A      1.486093   258A      1.497023   259A      1.503079  
     260A      1.511257   261A      1.519688   262A      1.527323  
     263A      1.535976   264A      1.540141   265A      1.546416  
     266A      1.552871   267A      1.564472   268A      1.573338  
     269A      1.584515   270A      1.592472   271A      1.607263  
     272A      1.609021   273A      1.623966   274A      1.627409  
     275A      1.640618   276A      1.652281   277A      1.655970  
     278A      1.661900   279A      1.669861   280A      1.688264  
     281A      1.695747   282A      1.709293   283A      1.715001  
     284A      1.726971   285A      1.733320   286A      1.743904  
     287A      1.746587   288A      1.749869   289A      1.760556  
     290A      1.766502   291A      1.771563   292A      1.778197  
     293A      1.788664   294A      1.793532   295A      1.811975  
     296A      1.815035   297A      1.817359   298A      1.825202  
     299A      1.838570   300A      1.841260   301A      1.847601  
     302A      1.858037   303A      1.864226   304A      1.868893  
     305A      1.875737   306A      1.882347   307A      1.887885  
     308A      1.902189   309A      1.913220   310A      1.921379  
     311A      1.923984   312A      1.932199   313A      1.941216  
     314A      1.947941   315A      1.961398   316A      1.966470  
     317A      1.972707   318A      1.977911   319A      1.985504  
     320A      1.989512   321A      1.995206   322A      2.008828  
     323A      2.011764   324A      2.020011   325A      2.025402  
     326A      2.031906   327A      2.041193   328A      2.060466  
     329A      2.064261   330A      2.078964   331A      2.080173  
     332A      2.094936   333A      2.103389   334A      2.106447  
     335A      2.115788   336A      2.120056   337A      2.127695  
     338A      2.133414   339A      2.138550   340A      2.150169  
     341A      2.154461   342A      2.154755   343A      2.165590  
     344A      2.176896   345A      2.183117   346A      2.192891  
     347A      2.199710   348A      2.207525   349A      2.212582  
     350A      2.213790   351A      2.224071   352A      2.231993  
     353A      2.237694   354A      2.251827   355A      2.259166  
     356A      2.261354   357A      2.267928   358A      2.274771  
     359A      2.281736   360A      2.298844   361A      2.305517  
     362A      2.312323   363A      2.317331   364A      2.322017  
     365A      2.330639   366A      2.337021   367A      2.347906  
     368A      2.354734   369A      2.357342   370A      2.367553  
     371A      2.371988   372A      2.384779   373A      2.399094  
     374A      2.404149   375A      2.418684   376A      2.420315  
     377A      2.427431   378A      2.436629   379A      2.459871  
     380A      2.460535   381A      2.471056   382A      2.477335  
     383A      2.479483   384A      2.486899   385A      2.503813  
     386A      2.516223   387A      2.518022   388A      2.541882  
     389A      2.545805   390A      2.566204   391A      2.572456  
     392A      2.581548   393A      2.589093   394A      2.597791  
     395A      2.616741   396A      2.620676   397A      2.635849  
     398A      2.647246   399A      2.666182   400A      2.677592  
     401A      2.688198   402A      2.705031   403A      2.710899  
     404A      2.727141   405A      2.738172   406A      2.747705  
     407A      2.755913   408A      2.766219   409A      2.775580  
     410A      2.792044   411A      2.804882   412A      2.818716  
     413A      2.821672   414A      2.831769   415A      2.845819  
     416A      2.874860   417A      2.877849   418A      2.882467  
     419A      2.886321   420A      2.900593   421A      2.907196  
     422A      2.909233   423A      2.938221   424A      2.943410  
     425A      2.958051   426A      2.980044   427A      2.984154  
     428A      2.996584   429A      3.001997   430A      3.009098  
     431A      3.024379   432A      3.029374   433A      3.034733  
     434A      3.046949   435A      3.051823   436A      3.063447  
     437A      3.076983   438A      3.083915   439A      3.091469  
     440A      3.101985   441A      3.109585   442A      3.112182  
     443A      3.132097   444A      3.159916   445A      3.168605  
     446A      3.177950   447A      3.180731   448A      3.201526  
     449A      3.217439   450A      3.238828   451A      3.246524  
     452A      3.249391   453A      3.265723   454A      3.269554  
     455A      3.278685   456A      3.288886   457A      3.293357  
     458A      3.306580   459A      3.320505   460A      3.333323  
     461A      3.347536   462A      3.354197   463A      3.380001  
     464A      3.390752   465A      3.395620   466A      3.410749  
     467A      3.417262   468A      3.429995   469A      3.435415  
     470A      3.461563   471A      3.479198   472A      3.480721  
     473A      3.485231   474A      3.512407   475A      3.517471  
     476A      3.530112   477A      3.553913   478A      3.563332  
     479A      3.571159   480A      3.579699   481A      3.591945  
     482A      3.606979   483A      3.643361   484A      3.652085  
     485A      3.659443   486A      3.669263   487A      3.692127  
     488A      3.693571   489A      3.713485   490A      3.719039  
     491A      3.727174   492A      3.738657   493A      3.763675  
     494A      3.777297   495A      3.791968   496A      3.800050  
     497A      3.810992   498A      3.838230   499A      3.842598  
     500A      3.871089   501A      3.875535   502A      3.897183  
     503A      3.904830   504A      3.920975   505A      3.925082  
     506A      3.933589   507A      3.949160   508A      3.970976  
     509A      3.977276   510A      3.987522   511A      4.005606  
     512A      4.009821   513A      4.027757   514A      4.038524  
     515A      4.058436   516A      4.067834   517A      4.072732  
     518A      4.081383   519A      4.089968   520A      4.110854  
     521A      4.116411   522A      4.143720   523A      4.156578  
     524A      4.160218   525A      4.165907   526A      4.185747  
     527A      4.189665   528A      4.208308   529A      4.213989  
     530A      4.232928   531A      4.241011   532A      4.259056  
     533A      4.271046   534A      4.286448   535A      4.293361  
     536A      4.309634   537A      4.324870   538A      4.331794  
     539A      4.344118   540A      4.352665   541A      4.382193  
     542A      4.386400   543A      4.390996   544A      4.403043  
     545A      4.409959   546A      4.420307   547A      4.429203  
     548A      4.432572   549A      4.458841   550A      4.471654  
     551A      4.478780   552A      4.497747   553A      4.511843  
     554A      4.516127   555A      4.522533   556A      4.538241  
     557A      4.544398   558A      4.567700   559A      4.568769  
     560A      4.585167   561A      4.589985   562A      4.608915  
     563A      4.620888   564A      4.629623   565A      4.641439  
     566A      4.642697   567A      4.653128   568A      4.662804  
     569A      4.665505   570A      4.684022   571A      4.694042  
     572A      4.705648   573A      4.714510   574A      4.724469  
     575A      4.736191   576A      4.759034   577A      4.765756  
     578A      4.772221   579A      4.790098   580A      4.811349  
     581A      4.817554   582A      4.827418   583A      4.854314  
     584A      4.859859   585A      4.884513   586A      4.890901  
     587A      4.901661   588A      4.912914   589A      4.936650  
     590A      4.962738   591A      4.986534   592A      4.986973  
     593A      5.008258   594A      5.021345   595A      5.024557  
     596A      5.035008   597A      5.059860   598A      5.070524  
     599A      5.091821   600A      5.109247   601A      5.116601  
     602A      5.139789   603A      5.154392   604A      5.174283  
     605A      5.199458   606A      5.221170   607A      5.228475  
     608A      5.242396   609A      5.251742   610A      5.267332  
     611A      5.282459   612A      5.306245   613A      5.332693  
     614A      5.346535   615A      5.399796   616A      5.435444  
     617A      5.447363   618A      5.485709   619A      5.511876  
     620A      5.518759   621A      5.536160   622A      5.559747  
     623A      5.580562   624A      5.588612   625A      5.625686  
     626A      5.638575   627A      5.669731   628A      5.688711  
     629A      5.709992   630A      5.726438   631A      5.774356  
     632A      5.801227   633A      5.807476   634A      5.824403  
     635A      5.829717   636A      5.857343   637A      5.899252  
     638A      5.914591   639A      5.942314   640A      5.964359  
     641A      6.002488   642A      6.040750   643A      6.061661  
     644A      6.136583   645A      6.170156   646A      6.237137  
     647A      6.274712   648A      6.287884   649A      6.314625  
     650A      6.325840   651A      6.358334   652A      6.406263  
     653A      6.416756   654A      6.466462   655A      6.489102  
     656A      6.506150   657A      6.518775   658A      6.541812  
     659A      6.569179   660A      6.594495   661A      6.610689  
     662A      6.632417   663A      6.657409   664A      6.666678  
     665A      6.709955   666A      6.730979   667A      6.739713  
     668A      6.759829   669A      6.799799   670A      6.813898  
     671A      6.834660   672A      6.861974   673A      6.873328  
     674A      6.895166   675A      6.922542   676A      6.926842  
     677A      6.939195   678A      6.958852   679A      6.967368  
     680A      6.978114   681A      6.995643   682A      7.013215  
     683A      7.033113   684A      7.039358   685A      7.061037  
     686A      7.069029   687A      7.088443   688A      7.104305  
     689A      7.123662   690A      7.132583   691A      7.155872  
     692A      7.158427   693A      7.191719   694A      7.192917  
     695A      7.206398   696A      7.216983   697A      7.234452  
     698A      7.262909   699A      7.277557   700A      7.287631  
     701A      7.294258   702A      7.311735   703A      7.325206  
     704A      7.343307   705A      7.347653   706A      7.372770  
     707A      7.406565   708A      7.448714   709A      7.461721  
     710A      7.494797   711A      7.514685   712A      7.523071  
     713A      7.549058   714A      7.573232   715A      7.597932  
     716A      7.606788   717A      7.634105   718A      7.660795  
     719A      7.682709   720A      7.700930   721A      7.711801  
     722A      7.746012   723A      7.753722   724A      7.778454  
     725A      7.780897   726A      7.789826   727A      7.811525  
     728A      7.845543   729A      7.851113   730A      7.874189  
     731A      7.893703   732A      7.909928   733A      7.956260  
     734A      7.965102   735A      7.984604   736A      7.992104  
     737A      8.022517   738A      8.057989   739A      8.082482  
     740A      8.107891   741A      8.115839   742A      8.139376  
     743A      8.162400   744A      8.182187   745A      8.187461  
     746A      8.205445   747A      8.226487   748A      8.230063  
     749A      8.253592   750A      8.272083   751A      8.283923  
     752A      8.303054   753A      8.323888   754A      8.382264  
     755A      8.394741   756A      8.433730   757A      8.443398  
     758A      8.474053   759A      8.504569   760A      8.519582  
     761A      8.532489   762A      8.546360   763A      8.565793  
     764A      8.578585   765A      8.607214   766A      8.631137  
     767A      8.656000   768A      8.666293   769A      8.671672  
     770A      8.697226   771A      8.711490   772A      8.723706  
     773A      8.755736   774A      8.764192   775A      8.790200  
     776A      8.795741   777A      8.809005   778A      8.827088  
     779A      8.837513   780A      8.872721   781A      8.900672  
     782A      8.917564   783A      8.944054   784A      8.951069  
     785A      8.969768   786A      8.972357   787A      9.018267  
     788A      9.031371   789A      9.042955   790A      9.073455  
     791A      9.146699   792A      9.154026   793A      9.180634  
     794A      9.204895   795A      9.215017   796A      9.260959  
     797A      9.274434   798A      9.286672   799A      9.302126  
     800A      9.325051   801A      9.367228   802A      9.393658  
     803A      9.408876   804A      9.433440   805A      9.439929  
     806A      9.488845   807A      9.496329   808A      9.526316  
     809A      9.544441   810A      9.584858   811A      9.613833  
     812A      9.638734   813A      9.671798   814A      9.698965  
     815A      9.707762   816A      9.732319   817A      9.747736  
     818A      9.764642   819A      9.787382   820A      9.804223  
     821A      9.808657   822A      9.826074   823A      9.844805  
     824A      9.876892   825A      9.884547   826A      9.903116  
     827A      9.910838   828A      9.945129   829A      9.984491  
     830A      9.993419   831A     10.084772   832A     10.105660  
     833A     10.128613   834A     10.141112   835A     10.159623  
     836A     10.178828   837A     10.219711   838A     10.234515  
     839A     10.249896   840A     10.257665   841A     10.283572  
     842A     10.297261   843A     10.314805   844A     10.334142  
     845A     10.367590   846A     10.388411   847A     10.427768  
     848A     10.456455   849A     10.500146   850A     10.570135  
     851A     10.635586   852A     10.670164   853A     10.716156  
     854A     10.727364   855A     10.777682   856A     10.842718  
     857A     10.859607   858A     10.871874   859A     10.875870  
     860A     10.904285   861A     10.930318   862A     10.941842  
     863A     10.989740   864A     11.031847   865A     11.055916  
     866A     11.078446   867A     11.104597   868A     11.122217  
     869A     11.166139   870A     11.174364   871A     11.193199  
     872A     11.217157   873A     11.233784   874A     11.254809  
     875A     11.265929   876A     11.331291   877A     11.338383  
     878A     11.392107   879A     11.405108   880A     11.493565  
     881A     11.504632   882A     11.512914   883A     11.536056  
     884A     11.581024   885A     11.608730   886A     11.619944  
     887A     11.632334   888A     11.670970   889A     11.707390  
     890A     11.740038   891A     11.811888   892A     11.835058  
     893A     11.895086   894A     11.917910   895A     11.929280  
     896A     11.953733   897A     11.986327   898A     11.987721  
     899A     12.037934   900A     12.125824   901A     12.176974  
     902A     12.208575   903A     12.221387   904A     12.247602  
     905A     12.274109   906A     12.299437   907A     12.318092  
     908A     12.334098   909A     12.440411   910A     12.549418  
     911A     12.580917   912A     12.584990   913A     12.631031  
     914A     12.748349   915A     12.773196   916A     12.831407  
     917A     12.883756   918A     12.932826   919A     12.953118  
     920A     12.986000   921A     13.013429   922A     13.042297  
     923A     13.055316   924A     13.078884   925A     13.114271  
     926A     13.263985   927A     13.308619   928A     13.333687  
     929A     13.358571   930A     13.373272   931A     13.409146  
     932A     13.430287   933A     13.455949   934A     13.486737  
     935A     13.561108   936A     13.654742   937A     13.671512  
     938A     13.747763   939A     14.032453   940A     14.097647  
     941A     14.121205   942A     14.158907   943A     14.293606  
     944A     14.518045   945A     14.616309   946A     14.716131  
     947A     14.849122   948A     15.030165   949A     15.099007  
     950A     15.113650   951A     15.198747   952A     15.406895  
     953A     15.507594   954A     17.469049   955A     26.924092  
     956A     27.104465   957A     27.993324   958A     28.325740  
     959A     36.267978   960A     44.358638   961A     44.583446  
     962A     46.261660  

    Final Occupation by Irrep:
              A 
    DOCC [    31 ]

  Energy converged.

  @DF-RHF Final Energy:  -434.74356651251014

   => Energetics <=

    Nuclear Repulsion Energy =            383.6628521314407863
    One-Electron Energy =               -1356.1413076088069829
    Two-Electron Energy =                 537.7348889648560544
    Total Energy =                       -434.7435665125101423



Properties will be evaluated at   0.000000,   0.000000,   0.000000 Bohr

Properties computed using the SCF density matrix

  Nuclear Dipole Moment: (a.u.)
     X:     0.9545      Y:     3.5942      Z:    -4.6128

  Electronic Dipole Moment: (a.u.)
     X:    -0.2922      Y:    -2.3080      Z:     4.3374

  Dipole Moment: (a.u.)
     X:     0.6623      Y:     1.2863      Z:    -0.2754     Total:     1.4727

  Dipole Moment: (Debye)
     X:     1.6833      Y:     3.2693      Z:    -0.7000     Total:     3.7433


*** tstop() called on hex15 at Wed Mar  7 04:57:36 2018
Module time:
	user time   =     485.50 seconds =       8.09 minutes
	system time =       3.31 seconds =       0.06 minutes
	total time  =        147 seconds =       2.45 minutes
Total time:
	user time   =     485.50 seconds =       8.09 minutes
	system time =       3.31 seconds =       0.06 minutes
	total time  =        147 seconds =       2.45 minutes

*** Psi4 exiting successfully. Buy a developer a beer!
