
    -----------------------------------------------------------------------
          Psi4: An Open-Source Ab Initio Electronic Structure Package
                               Psi4 1.2a1.dev875 

                         Git: Rev {symm_JK} 0ea9481 dirty


    R. M. Parrish, L. A. Burns, D. G. A. Smith, A. C. Simmonett,
    A. E. DePrince III, E. G. Hohenstein, U. Bozkaya, A. Yu. Sokolov,
    R. Di Remigio, R. M. Richard, J. F. Gonthier, A. M. James,
    H. R. McAlexander, A. Kumar, M. Saitow, X. Wang, B. P. Pritchard,
    P. Verma, H. F. Schaefer III, K. Patkowski, R. A. King, E. F. Valeev,
    F. A. Evangelista, J. M. Turney, T. D. Crawford, and C. D. Sherrill,
    J. Chem. Theory Comput. 13(7) pp 3185--3197 (2017).
    (doi: 10.1021/acs.jctc.7b00174)

    -----------------------------------------------------------------------


    Psi4 started on: Sunday, 04 March 2018 06:29PM

    Process ID:  26516
    PSIDATADIR: /theoryfs2/ds/schieber/Gits/mspsi4/objdir3/stage/usr/local/psi4/share/psi4
    Memory:     500.0 MiB
    Threads:    6
    
  ==> Input File <==

--------------------------------------------------------------------------
memory 60 Gb

molecule protein_103 {
0 1
 N   18.626  30.444   6.627
 C   17.853  29.516   5.837
 C   16.945  30.292   4.886
 O   15.843  30.678   5.237
 C   17.047  28.642   6.811
 C   16.316  27.513   6.146
 O   16.236  27.458   4.905
 O   15.762  26.696   6.882
 N    4.567  24.042   8.795
 C    4.886  22.777   8.145
 C    6.265  22.720   7.521
 O    6.723  23.689   6.900
 N   17.407  27.054  -1.437
 C   17.227  26.751  -0.026
 C   18.555  26.446   0.653
 O   19.003  25.309   0.692
 C   16.258  25.572   0.084
 C   15.759  25.336   1.493
 O   16.399  25.780   2.453
 O   14.731  24.675   1.645
 N   19.106  26.199   3.688
 C   18.957  25.372   4.876
 C   18.845  23.903   4.520
 O   18.660  23.054   5.417
 N   20.536  20.559   2.918
 C   21.779  19.912   2.496
 C   21.693  19.374   1.107
 O   22.642  19.502   0.361
 C   22.169  18.827   3.447
 C   22.272  19.337   4.844
 O   22.714  20.482   5.029
 O   21.836  18.647   5.778
 N   20.524  18.868   0.719
 C   20.355  18.227  -0.584
 C   19.212  18.807  -1.371
 O   18.383  19.523  -0.846
 C   20.084  16.745  -0.413
 C   21.023  16.088   0.586
 O   22.233  15.970   0.265
 O   20.531  15.682   1.672
 N   15.750  18.102  -3.440
 C   14.628  17.162  -3.514
 C   13.618  17.726  -4.436
 O   13.169  18.861  -4.263
 C   13.781  17.005  -2.245
 C   13.297  15.592  -2.184
 C   14.518  17.455  -1.007
 N   13.583  16.896   8.239
 C   13.484  18.319   8.459
 C   12.647  18.565   9.672
 O   12.880  17.976  10.721
 H   18.180  30.990   7.295
 H   18.510  28.835   5.249
 H   16.336  29.276   7.377
 H   17.778  28.186   7.516
 H   15.845  26.702   7.843
 H    4.436  24.871   8.195
 H    4.744  21.930   8.802
 H    4.143  22.632   7.335
 H   17.860  26.421  -2.023
 H   16.724  27.595   0.500
 H   16.724  24.663  -0.337
 H   15.363  25.845  -0.519
 H   16.737  25.171   3.109
 H   18.314  26.771   3.377
 H   18.015  25.631   5.391
 H   19.792  25.567   5.577
 H   19.976  20.073   3.597
 H   22.602  20.664   2.537
 H   23.175  18.459   3.144
 H   21.465  17.966   3.392
 H   21.492  17.752   5.634
 H   19.735  18.818   1.381
 H   21.291  18.340  -1.170
 H   20.109  16.188  -1.374
 H   19.050  16.648  -0.012
 H   19.629  15.364   1.734
 H   15.541  19.065  -3.172
 H   15.011  16.180  -3.836
 H   12.886  17.674  -2.203
 H   14.115  14.872  -2.046
 H   12.706  15.323  -3.086
 H   12.624  15.478  -1.307
 H   15.405  16.799  -0.936
 H   13.886  17.316  -0.103
 H   14.813  18.522  -1.068
 H   12.728  16.393   8.153
 H   13.053  18.790   7.555
 H   14.480  18.781   8.624
 H   19.646  30.419   6.619
 H   17.295  30.415   3.850
 H    4.454  24.117   9.806
 H    6.887  21.864   7.822
 H   16.947  27.858  -1.864
 H   19.060  27.284   1.155
 H   20.034  26.347   3.290
 H   18.824  23.654   3.449
 H   20.197  21.395   2.443
 H   19.162  18.493  -2.424
 H   16.715  17.829  -3.624
 H   13.269  17.060  -5.239
 H   14.494  16.447   8.142
 H   11.982  19.438   9.599
}

set {
basis aug-cc-pvdz
scf_type df
guess sad
DF_SCF_TYPE SYMM_JK
}

energy('HF')
--------------------------------------------------------------------------

  Memory set to  55.879 GiB by Python driver.

*** tstart() called on hex15
*** at Sun Mar  4 18:29:57 2018

   => Loading Basis Set <=

    Name: AUG-CC-PVDZ
    Role: ORBITAL
    Keyword: BASIS
    atoms 1, 9, 13, 21, 25, 33, 41, 48                                                          entry N          line   214 file /theoryfs2/ds/schieber/Gits/mspsi4/objdir3/stage/usr/local/psi4/share/psi4/basis/aug-cc-pvdz.gbs 
    atoms 2-3, 5-6, 10-11, 14-15, 17-18, 22-23, 26-27, 29-30, 34-35, 37-38, 42-43, 45-47, 49-50 entry C          line   178 file /theoryfs2/ds/schieber/Gits/mspsi4/objdir3/stage/usr/local/psi4/share/psi4/basis/aug-cc-pvdz.gbs 
    atoms 4, 7-8, 12, 16, 19-20, 24, 28, 31-32, 36, 39-40, 44, 51                               entry O          line   250 file /theoryfs2/ds/schieber/Gits/mspsi4/objdir3/stage/usr/local/psi4/share/psi4/basis/aug-cc-pvdz.gbs 
    atoms 52-103                                                                                entry H          line    36 file /theoryfs2/ds/schieber/Gits/mspsi4/objdir3/stage/usr/local/psi4/share/psi4/basis/aug-cc-pvdz.gbs 


         ---------------------------------------------------------
                                   SCF
            by Justin Turney, Rob Parrish, Andy Simmonett
                             and Daniel Smith
                              RHF Reference
                        6 Threads,  57220 MiB Core
         ---------------------------------------------------------

  ==> Geometry <==

    Molecular point group: c1
    Full point group: C1

    Geometry (in Angstrom), charge = 0, multiplicity = 1:

       Center              X                  Y                   Z               Mass       
    ------------   -----------------  -----------------  -----------------  -----------------
           N          1.834525169641     8.467048519537     3.745546000143    14.003074004780
           C          1.061525169641     7.539048519537     2.955546000143    12.000000000000
           C          0.153525169641     8.315048519537     2.004546000143    12.000000000000
           O         -0.948474830359     8.701048519537     2.355546000143    15.994914619560
           C          0.255525169641     6.665048519537     3.929546000143    12.000000000000
           C         -0.475474830359     5.536048519537     3.264546000143    12.000000000000
           O         -0.555474830359     5.481048519537     2.023546000143    15.994914619560
           O         -1.029474830359     4.719048519537     4.000546000143    15.994914619560
           N        -12.224474830359     2.065048519537     5.913546000143    14.003074004780
           C        -11.905474830359     0.800048519537     5.263546000143    12.000000000000
           C        -10.526474830359     0.743048519537     4.639546000143    12.000000000000
           O        -10.068474830359     1.712048519537     4.018546000143    15.994914619560
           N          0.615525169641     5.077048519537    -4.318453999857    14.003074004780
           C          0.435525169641     4.774048519537    -2.907453999857    12.000000000000
           C          1.763525169641     4.469048519537    -2.228453999857    12.000000000000
           O          2.211525169641     3.332048519537    -2.189453999857    15.994914619560
           C         -0.533474830359     3.595048519537    -2.797453999857    12.000000000000
           C         -1.032474830359     3.359048519537    -1.388453999857    12.000000000000
           O         -0.392474830359     3.803048519537    -0.428453999857    15.994914619560
           O         -2.060474830359     2.698048519537    -1.236453999857    15.994914619560
           N          2.314525169641     4.222048519537     0.806546000143    14.003074004780
           C          2.165525169641     3.395048519537     1.994546000143    12.000000000000
           C          2.053525169641     1.926048519537     1.638546000143    12.000000000000
           O          1.868525169641     1.077048519537     2.535546000143    15.994914619560
           N          3.744525169641    -1.417951480463     0.036546000143    14.003074004780
           C          4.987525169641    -2.064951480463    -0.385453999857    12.000000000000
           C          4.901525169641    -2.602951480463    -1.774453999857    12.000000000000
           O          5.850525169641    -2.474951480463    -2.520453999857    15.994914619560
           C          5.377525169641    -3.149951480463     0.565546000143    12.000000000000
           C          5.480525169641    -2.639951480463     1.962546000143    12.000000000000
           O          5.922525169641    -1.494951480463     2.147546000143    15.994914619560
           O          5.044525169641    -3.329951480463     2.896546000143    15.994914619560
           N          3.732525169641    -3.108951480463    -2.162453999857    14.003074004780
           C          3.563525169641    -3.749951480463    -3.465453999857    12.000000000000
           C          2.420525169641    -3.169951480463    -4.252453999857    12.000000000000
           O          1.591525169641    -2.453951480463    -3.727453999857    15.994914619560
           C          3.292525169641    -5.231951480463    -3.294453999857    12.000000000000
           C          4.231525169641    -5.888951480463    -2.295453999857    12.000000000000
           O          5.441525169641    -6.006951480463    -2.616453999857    15.994914619560
           O          3.739525169641    -6.294951480463    -1.209453999857    15.994914619560
           N         -1.041474830359    -3.874951480463    -6.321453999857    14.003074004780
           C         -2.163474830359    -4.814951480463    -6.395453999857    12.000000000000
           C         -3.173474830359    -4.250951480463    -7.317453999857    12.000000000000
           O         -3.622474830359    -3.115951480463    -7.144453999857    15.994914619560
           C         -3.010474830359    -4.971951480463    -5.126453999857    12.000000000000
           C         -3.494474830359    -6.384951480463    -5.065453999857    12.000000000000
           C         -2.273474830359    -4.521951480463    -3.888453999857    12.000000000000
           N         -3.208474830359    -5.080951480463     5.357546000143    14.003074004780
           C         -3.307474830359    -3.657951480463     5.577546000143    12.000000000000
           C         -4.144474830359    -3.411951480463     6.790546000143    12.000000000000
           O         -3.911474830359    -4.000951480463     7.839546000143    15.994914619560
           H          1.388525169641     9.013048519537     4.413546000143     1.007825032070
           H          1.718525169641     6.858048519537     2.367546000143     1.007825032070
           H         -0.455474830359     7.299048519537     4.495546000143     1.007825032070
           H          0.986525169641     6.209048519537     4.634546000143     1.007825032070
           H         -0.946474830359     4.725048519537     4.961546000143     1.007825032070
           H        -12.355474830359     2.894048519537     5.313546000143     1.007825032070
           H        -12.047474830359    -0.046951480463     5.920546000143     1.007825032070
           H        -12.648474830359     0.655048519537     4.453546000143     1.007825032070
           H          1.068525169641     4.444048519537    -4.904453999857     1.007825032070
           H         -0.067474830359     5.618048519537    -2.381453999857     1.007825032070
           H         -0.067474830359     2.686048519537    -3.218453999857     1.007825032070
           H         -1.428474830359     3.868048519537    -3.400453999857     1.007825032070
           H         -0.054474830359     3.194048519537     0.227546000143     1.007825032070
           H          1.522525169641     4.794048519537     0.495546000143     1.007825032070
           H          1.223525169641     3.654048519537     2.509546000143     1.007825032070
           H          3.000525169641     3.590048519537     2.695546000143     1.007825032070
           H          3.184525169641    -1.903951480463     0.715546000143     1.007825032070
           H          5.810525169641    -1.312951480463    -0.344453999857     1.007825032070
           H          6.383525169641    -3.517951480463     0.262546000143     1.007825032070
           H          4.673525169641    -4.010951480463     0.510546000143     1.007825032070
           H          4.700525169641    -4.224951480463     2.752546000143     1.007825032070
           H          2.943525169641    -3.158951480463    -1.500453999857     1.007825032070
           H          4.499525169641    -3.636951480463    -4.051453999857     1.007825032070
           H          3.317525169641    -5.788951480463    -4.255453999857     1.007825032070
           H          2.258525169641    -5.328951480463    -2.893453999857     1.007825032070
           H          2.837525169641    -6.612951480463    -1.147453999857     1.007825032070
           H         -1.250474830359    -2.911951480463    -6.053453999857     1.007825032070
           H         -1.780474830359    -5.796951480463    -6.717453999857     1.007825032070
           H         -3.905474830359    -4.302951480463    -5.084453999857     1.007825032070
           H         -2.676474830359    -7.104951480463    -4.927453999857     1.007825032070
           H         -4.085474830359    -6.653951480463    -5.967453999857     1.007825032070
           H         -4.167474830359    -6.498951480463    -4.188453999857     1.007825032070
           H         -1.386474830359    -5.177951480463    -3.817453999857     1.007825032070
           H         -2.905474830359    -4.660951480463    -2.984453999857     1.007825032070
           H         -1.978474830359    -3.454951480463    -3.949453999857     1.007825032070
           H         -4.063474830359    -5.583951480463     5.271546000143     1.007825032070
           H         -3.738474830359    -3.186951480463     4.673546000143     1.007825032070
           H         -2.311474830359    -3.195951480463     5.742546000143     1.007825032070
           H          2.854525169641     8.442048519537     3.737546000143     1.007825032070
           H          0.503525169641     8.438048519537     0.968546000143     1.007825032070
           H        -12.337474830359     2.140048519537     6.924546000143     1.007825032070
           H         -9.904474830359    -0.112951480463     4.940546000143     1.007825032070
           H          0.155525169641     5.881048519537    -4.745453999857     1.007825032070
           H          2.268525169641     5.307048519537    -1.726453999857     1.007825032070
           H          3.242525169641     4.370048519537     0.408546000143     1.007825032070
           H          2.032525169641     1.677048519537     0.567546000143     1.007825032070
           H          3.405525169641    -0.581951480463    -0.438453999857     1.007825032070
           H          2.370525169641    -3.483951480463    -5.305453999857     1.007825032070
           H         -0.076474830359    -4.147951480463    -6.505453999857     1.007825032070
           H         -3.522474830359    -4.916951480463    -8.120453999857     1.007825032070
           H         -2.297474830359    -5.529951480463     5.260546000143     1.007825032070
           H         -4.809474830359    -2.538951480463     6.717546000143     1.007825032070

  Running in c1 symmetry.

  Rotational constants: A =      0.00083  B =      0.00061  C =      0.00051 [cm^-1]
  Rotational constants: A =     24.83034  B =     18.39626  C =     15.29315 [MHz]
  Nuclear repulsion = 6201.543659593415214

  Charge       = 0
  Multiplicity = 1
  Electrons    = 398
  Nalpha       = 199
  Nbeta        = 199

  ==> Algorithm <==

  SCF Algorithm Type is DF.
  DIIS enabled.
  MOM disabled.
  Fractional occupation disabled.
  Guess Type is SAD.
  Energy threshold   = 1.00e-06
  Density threshold  = 1.00e-06
  Integral threshold = 0.00e+00

  ==> Primary Basis <==

  Basis Set: AUG-CC-PVDZ
    Blend: AUG-CC-PVDZ
    Number of shells: 719
    Number of basis function: 1641
    Number of Cartesian functions: 1743
    Spherical Harmonics?: true
    Max angular momentum: 2

   => Loading Basis Set <=

    Name: (AUG-CC-PVDZ AUX)
    Role: JKFIT
    Keyword: DF_BASIS_SCF
    atoms 1, 9, 13, 21, 25, 33, 41, 48                                                          entry N          line   212 file /theoryfs2/ds/schieber/Gits/mspsi4/objdir3/stage/usr/local/psi4/share/psi4/basis/aug-cc-pvdz-jkfit.gbs 
    atoms 2-3, 5-6, 10-11, 14-15, 17-18, 22-23, 26-27, 29-30, 34-35, 37-38, 42-43, 45-47, 49-50 entry C          line   154 file /theoryfs2/ds/schieber/Gits/mspsi4/objdir3/stage/usr/local/psi4/share/psi4/basis/aug-cc-pvdz-jkfit.gbs 
    atoms 4, 7-8, 12, 16, 19-20, 24, 28, 31-32, 36, 39-40, 44, 51                               entry O          line   270 file /theoryfs2/ds/schieber/Gits/mspsi4/objdir3/stage/usr/local/psi4/share/psi4/basis/aug-cc-pvdz-jkfit.gbs 
    atoms 52-103                                                                                entry H          line    70 file /theoryfs2/ds/schieber/Gits/mspsi4/objdir3/stage/usr/local/psi4/share/psi4/basis/aug-cc-pvdz-jkfit.gbs 

  ==> Pre-Iterations <==

   -------------------------------------------------------
    Irrep   Nso     Nmo     Nalpha   Nbeta   Ndocc  Nsocc
   -------------------------------------------------------
     A       1641    1641       0       0       0       0
   -------------------------------------------------------
    Total    1641    1641     199     199     199       0
   -------------------------------------------------------

  ==> Integral Setup <==


    ==> DF_Helper memory announcement <==
        Turning off in-core AOs.  DF_Helper needs at least (79.3264GB), but it only got (45GB)

    ==> DF_Helper <==
      nao           = 1641
      naux          = 6050
      Scwarz cutoff = 1.000000E-12
      mem (doubles) = 5625000000
      nthreads      = 6
      Algorithm     = STORE
      AO_core?      = 0
      MO_core?      = 0
      hold metric   = 0
      metric power  = -5.000000E-01
  Fitting condition = 1.000000E-12
  Mask sparsity (%) = (51.755648)


  Minimum eigenvalue in the overlap matrix is 2.5936640334E-06.
  Using Symmetric Orthogonalization.

  SCF Guess: Superposition of Atomic Densities via on-the-fly atomic UHF.

  ==> Iterations <==

                           Total Energy        Delta E     RMS |[F,P]|

   @DF-RHF iter   0: -2704.55790745552986   -2.70456e+03   1.96503e-02 
   @DF-RHF iter   1: -2684.41975315750597    2.01382e+01   2.49059e-03 
   @DF-RHF iter   2: -2685.62932052594260   -1.20957e+00   1.69531e-03 DIIS
   @DF-RHF iter   3: -2686.16311285041684   -5.33792e-01   4.00019e-04 DIIS
   @DF-RHF iter   4: -2686.22726908444656   -6.41562e-02   1.39675e-04 DIIS
   @DF-RHF iter   5: -2686.23693106454357   -9.66198e-03   5.58284e-05 DIIS
   @DF-RHF iter   6: -2686.23951885702081   -2.58779e-03   2.65196e-05 DIIS
   @DF-RHF iter   7: -2686.24015024539085   -6.31388e-04   1.14976e-05 DIIS
   @DF-RHF iter   8: -2686.24026864931420   -1.18404e-04   5.38119e-06 DIIS
   @DF-RHF iter   9: -2686.24029746499264   -2.88157e-05   2.45581e-06 DIIS
   @DF-RHF iter  10: -2686.24030439595208   -6.93096e-06   1.09088e-06 DIIS
   @DF-RHF iter  11: -2686.24030603335632   -1.63740e-06   4.46855e-07 DIIS
   @DF-RHF iter  12: -2686.24030625473097   -2.21375e-07   1.98486e-07 DIIS

  ==> Post-Iterations <==

    Orbital Energies (a.u.)
    -----------------------

    Doubly Occupied:                                                      

       1A    -20.664927     2A    -20.654788     3A    -20.644186  
       4A    -20.611174     5A    -20.595425     6A    -20.578290  
       7A    -20.572202     8A    -20.570675     9A    -20.570579  
      10A    -20.570165    11A    -20.564747    12A    -20.563432  
      13A    -20.552142    14A    -20.529734    15A    -20.526653  
      16A    -20.524781    17A    -15.606045    18A    -15.567830  
      19A    -15.559979    20A    -15.556647    21A    -15.554921  
      22A    -15.552990    23A    -15.550836    24A    -15.549090  
      25A    -11.422271    26A    -11.406568    27A    -11.389711  
      28A    -11.374857    29A    -11.366354    30A    -11.351128  
      31A    -11.349204    32A    -11.345935    33A    -11.344149  
      34A    -11.342660    35A    -11.340041    36A    -11.339138  
      37A    -11.315126    38A    -11.301334    39A    -11.293827  
      40A    -11.292575    41A    -11.286744    42A    -11.282391  
      43A    -11.282028    44A    -11.280537    45A    -11.280122  
      46A    -11.269996    47A    -11.265649    48A    -11.242091  
      49A    -11.236745    50A    -11.235855    51A    -11.224979  
      52A     -1.532638    53A     -1.528600    54A     -1.515453  
      55A     -1.502438    56A     -1.421948    57A     -1.400522  
      58A     -1.396766    59A     -1.394458    60A     -1.388430  
      61A     -1.383273    62A     -1.378318    63A     -1.373229  
      64A     -1.362350    65A     -1.361941    66A     -1.342357  
      67A     -1.336415    68A     -1.257418    69A     -1.216353  
      70A     -1.203244    71A     -1.193754    72A     -1.189975  
      73A     -1.186733    74A     -1.184927    75A     -1.173530  
      76A     -1.100520    77A     -1.087413    78A     -1.057097  
      79A     -1.053839    80A     -1.043397    81A     -0.979963  
      82A     -0.971816    83A     -0.971126    84A     -0.970937  
      85A     -0.965673    86A     -0.951580    87A     -0.937111  
      88A     -0.936827    89A     -0.931185    90A     -0.913220  
      91A     -0.908978    92A     -0.889491    93A     -0.875824  
      94A     -0.832454    95A     -0.813095    96A     -0.810429  
      97A     -0.803742    98A     -0.800392    99A     -0.798165  
     100A     -0.797647   101A     -0.794935   102A     -0.767278  
     103A     -0.753258   104A     -0.748183   105A     -0.734309  
     106A     -0.730838   107A     -0.718839   108A     -0.718352  
     109A     -0.714682   110A     -0.709369   111A     -0.705485  
     112A     -0.701739   113A     -0.701577   114A     -0.699262  
     115A     -0.696204   116A     -0.695236   117A     -0.692426  
     118A     -0.688547   119A     -0.685595   120A     -0.684656  
     121A     -0.681153   122A     -0.668304   123A     -0.666572  
     124A     -0.663605   125A     -0.661484   126A     -0.659258  
     127A     -0.656279   128A     -0.655640   129A     -0.653130  
     130A     -0.651765   131A     -0.644077   132A     -0.642145  
     133A     -0.639172   134A     -0.631141   135A     -0.631047  
     136A     -0.630004   137A     -0.629942   138A     -0.629460  
     139A     -0.629023   140A     -0.628447   141A     -0.620848  
     142A     -0.613085   143A     -0.611679   144A     -0.607165  
     145A     -0.600059   146A     -0.592189   147A     -0.590009  
     148A     -0.577239   149A     -0.576769   150A     -0.573373  
     151A     -0.572599   152A     -0.565112   153A     -0.562726  
     154A     -0.560779   155A     -0.556808   156A     -0.556642  
     157A     -0.553582   158A     -0.551138   159A     -0.543593  
     160A     -0.536715   161A     -0.531924   162A     -0.530771  
     163A     -0.527905   164A     -0.525883   165A     -0.523445  
     166A     -0.518715   167A     -0.515365   168A     -0.515035  
     169A     -0.504238   170A     -0.503234   171A     -0.492224  
     172A     -0.491032   173A     -0.488193   174A     -0.481676  
     175A     -0.481202   176A     -0.473699   177A     -0.465359  
     178A     -0.461268   179A     -0.456255   180A     -0.454375  
     181A     -0.450387   182A     -0.446288   183A     -0.445794  
     184A     -0.443311   185A     -0.442000   186A     -0.441722  
     187A     -0.438613   188A     -0.433769   189A     -0.432750  
     190A     -0.431964   191A     -0.428475   192A     -0.406415  
     193A     -0.384624   194A     -0.379805   195A     -0.374433  
     196A     -0.372973   197A     -0.372606   198A     -0.369655  
     199A     -0.364198  

    Virtual:                                                              

     200A      0.003796   201A      0.018451   202A      0.019525  
     203A      0.024841   204A      0.027126   205A      0.029901  
     206A      0.032125   207A      0.033151   208A      0.036398  
     209A      0.039641   210A      0.041263   211A      0.043579  
     212A      0.043991   213A      0.046237   214A      0.048199  
     215A      0.048606   216A      0.050691   217A      0.051648  
     218A      0.052463   219A      0.057600   220A      0.059252  
     221A      0.060999   222A      0.061374   223A      0.062726  
     224A      0.063914   225A      0.064583   226A      0.068425  
     227A      0.068926   228A      0.072227   229A      0.073674  
     230A      0.074056   231A      0.075446   232A      0.075668  
     233A      0.077983   234A      0.080089   235A      0.080622  
     236A      0.081627   237A      0.084472   238A      0.086798  
     239A      0.089002   240A      0.089687   241A      0.091214  
     242A      0.093486   243A      0.093989   244A      0.094688  
     245A      0.097672   246A      0.098147   247A      0.099069  
     248A      0.100923   249A      0.102829   250A      0.103138  
     251A      0.107303   252A      0.108131   253A      0.110253  
     254A      0.110696   255A      0.113144   256A      0.114259  
     257A      0.116650   258A      0.117704   259A      0.117886  
     260A      0.119111   261A      0.120735   262A      0.121462  
     263A      0.122572   264A      0.124614   265A      0.126437  
     266A      0.127732   267A      0.129389   268A      0.130833  
     269A      0.132649   270A      0.133610   271A      0.135396  
     272A      0.136522   273A      0.138560   274A      0.140673  
     275A      0.141547   276A      0.143545   277A      0.145342  
     278A      0.146766   279A      0.147550   280A      0.148328  
     281A      0.148921   282A      0.151049   283A      0.151419  
     284A      0.151658   285A      0.152287   286A      0.153054  
     287A      0.153869   288A      0.155053   289A      0.156481  
     290A      0.156915   291A      0.158441   292A      0.159788  
     293A      0.162439   294A      0.162735   295A      0.163351  
     296A      0.164239   297A      0.165746   298A      0.166679  
     299A      0.168197   300A      0.169388   301A      0.170518  
     302A      0.172544   303A      0.173753   304A      0.174351  
     305A      0.175742   306A      0.176584   307A      0.178765  
     308A      0.179055   309A      0.180072   310A      0.181709  
     311A      0.181841   312A      0.183223   313A      0.184951  
     314A      0.185443   315A      0.186784   316A      0.188007  
     317A      0.189597   318A      0.190284   319A      0.191335  
     320A      0.193082   321A      0.193914   322A      0.196223  
     323A      0.196887   324A      0.198206   325A      0.198890  
     326A      0.199982   327A      0.201957   328A      0.203311  
     329A      0.203569   330A      0.205713   331A      0.207006  
     332A      0.208265   333A      0.209201   334A      0.210930  
     335A      0.212123   336A      0.212931   337A      0.213696  
     338A      0.214813   339A      0.217853   340A      0.219100  
     341A      0.220837   342A      0.221678   343A      0.222521  
     344A      0.223326   345A      0.224496   346A      0.225822  
     347A      0.227724   348A      0.228333   349A      0.229186  
     350A      0.231611   351A      0.233495   352A      0.234204  
     353A      0.235001   354A      0.236012   355A      0.236924  
     356A      0.238435   357A      0.238778   358A      0.241668  
     359A      0.244069   360A      0.245362   361A      0.247988  
     362A      0.249689   363A      0.250582   364A      0.252087  
     365A      0.253760   366A      0.255231   367A      0.256574  
     368A      0.257805   369A      0.259318   370A      0.259677  
     371A      0.262460   372A      0.263394   373A      0.266385  
     374A      0.266712   375A      0.268537   376A      0.269813  
     377A      0.270483   378A      0.273506   379A      0.276260  
     380A      0.277254   381A      0.278809   382A      0.280112  
     383A      0.280571   384A      0.281003   385A      0.282025  
     386A      0.283830   387A      0.284615   388A      0.287713  
     389A      0.288888   390A      0.290378   391A      0.291284  
     392A      0.293408   393A      0.296073   394A      0.297588  
     395A      0.298387   396A      0.299706   397A      0.301864  
     398A      0.302801   399A      0.305187   400A      0.305746  
     401A      0.307109   402A      0.307914   403A      0.310629  
     404A      0.311132   405A      0.314969   406A      0.316363  
     407A      0.316810   408A      0.317334   409A      0.319816  
     410A      0.321914   411A      0.322870   412A      0.324219  
     413A      0.325261   414A      0.326169   415A      0.327511  
     416A      0.330184   417A      0.330563   418A      0.332253  
     419A      0.333283   420A      0.335389   421A      0.336548  
     422A      0.337465   423A      0.340343   424A      0.340594  
     425A      0.342337   426A      0.343739   427A      0.344756  
     428A      0.346373   429A      0.346935   430A      0.348023  
     431A      0.348921   432A      0.350864   433A      0.352770  
     434A      0.353084   435A      0.353769   436A      0.354986  
     437A      0.357067   438A      0.358183   439A      0.358971  
     440A      0.361395   441A      0.362425   442A      0.364823  
     443A      0.365780   444A      0.366619   445A      0.367754  
     446A      0.368696   447A      0.370634   448A      0.370758  
     449A      0.372315   450A      0.373482   451A      0.375560  
     452A      0.377169   453A      0.378304   454A      0.379549  
     455A      0.381136   456A      0.382799   457A      0.384629  
     458A      0.385503   459A      0.385982   460A      0.387323  
     461A      0.388972   462A      0.390009   463A      0.390332  
     464A      0.390982   465A      0.393372   466A      0.393495  
     467A      0.394802   468A      0.396819   469A      0.397799  
     470A      0.400085   471A      0.402201   472A      0.403476  
     473A      0.405133   474A      0.406457   475A      0.406564  
     476A      0.407831   477A      0.409643   478A      0.410539  
     479A      0.411201   480A      0.413794   481A      0.414907  
     482A      0.415530   483A      0.416265   484A      0.416490  
     485A      0.417251   486A      0.419069   487A      0.419975  
     488A      0.421973   489A      0.424198   490A      0.426753  
     491A      0.427879   492A      0.429017   493A      0.430427  
     494A      0.432523   495A      0.433289   496A      0.434525  
     497A      0.436184   498A      0.437104   499A      0.437713  
     500A      0.438861   501A      0.439338   502A      0.441031  
     503A      0.441817   504A      0.443330   505A      0.444898  
     506A      0.446685   507A      0.448198   508A      0.449631  
     509A      0.450162   510A      0.452071   511A      0.453902  
     512A      0.455265   513A      0.457389   514A      0.459329  
     515A      0.459540   516A      0.462123   517A      0.462635  
     518A      0.463282   519A      0.464164   520A      0.466647  
     521A      0.468189   522A      0.468744   523A      0.469328  
     524A      0.471824   525A      0.472599   526A      0.473058  
     527A      0.475586   528A      0.476876   529A      0.478807  
     530A      0.480440   531A      0.480783   532A      0.481897  
     533A      0.482478   534A      0.483129   535A      0.485527  
     536A      0.486599   537A      0.488331   538A      0.490160  
     539A      0.490890   540A      0.491627   541A      0.493710  
     542A      0.495031   543A      0.495632   544A      0.497603  
     545A      0.498379   546A      0.498705   547A      0.501696  
     548A      0.502594   549A      0.503696   550A      0.505234  
     551A      0.505599   552A      0.507525   553A      0.507890  
     554A      0.508799   555A      0.511310   556A      0.513048  
     557A      0.514114   558A      0.515580   559A      0.516458  
     560A      0.518471   561A      0.519745   562A      0.523970  
     563A      0.524938   564A      0.525360   565A      0.527500  
     566A      0.528031   567A      0.529064   568A      0.530179  
     569A      0.530691   570A      0.532580   571A      0.534139  
     572A      0.535226   573A      0.537784   574A      0.538309  
     575A      0.538695   576A      0.541296   577A      0.543617  
     578A      0.543906   579A      0.545158   580A      0.546756  
     581A      0.548965   582A      0.550010   583A      0.551385  
     584A      0.552137   585A      0.553867   586A      0.554114  
     587A      0.556957   588A      0.557906   589A      0.559207  
     590A      0.560444   591A      0.562004   592A      0.564953  
     593A      0.565784   594A      0.569459   595A      0.570094  
     596A      0.571045   597A      0.571606   598A      0.572879  
     599A      0.573731   600A      0.575496   601A      0.577997  
     602A      0.579384   603A      0.582757   604A      0.585387  
     605A      0.586360   606A      0.588653   607A      0.589286  
     608A      0.591819   609A      0.592738   610A      0.594006  
     611A      0.594795   612A      0.596640   613A      0.597166  
     614A      0.597950   615A      0.600317   616A      0.601122  
     617A      0.602164   618A      0.604207   619A      0.608726  
     620A      0.609078   621A      0.610178   622A      0.611175  
     623A      0.611866   624A      0.612911   625A      0.613869  
     626A      0.615087   627A      0.616864   628A      0.619028  
     629A      0.620706   630A      0.621806   631A      0.623953  
     632A      0.625253   633A      0.626805   634A      0.627739  
     635A      0.630594   636A      0.631130   637A      0.633362  
     638A      0.633839   639A      0.634263   640A      0.634557  
     641A      0.636040   642A      0.639486   643A      0.640379  
     644A      0.643039   645A      0.647079   646A      0.648006  
     647A      0.649006   648A      0.650414   649A      0.651779  
     650A      0.652893   651A      0.654613   652A      0.655578  
     653A      0.656379   654A      0.657160   655A      0.659483  
     656A      0.661501   657A      0.662736   658A      0.663492  
     659A      0.664566   660A      0.664960   661A      0.665171  
     662A      0.666122   663A      0.669023   664A      0.670371  
     665A      0.672657   666A      0.674263   667A      0.674668  
     668A      0.676876   669A      0.678830   670A      0.679838  
     671A      0.680928   672A      0.682562   673A      0.684339  
     674A      0.686696   675A      0.688192   676A      0.688693  
     677A      0.691491   678A      0.693107   679A      0.694931  
     680A      0.695585   681A      0.697566   682A      0.698634  
     683A      0.701486   684A      0.703989   685A      0.705317  
     686A      0.705751   687A      0.708034   688A      0.708569  
     689A      0.709992   690A      0.712303   691A      0.713271  
     692A      0.716660   693A      0.716830   694A      0.718697  
     695A      0.719890   696A      0.721108   697A      0.723433  
     698A      0.724803   699A      0.726218   700A      0.726853  
     701A      0.728340   702A      0.730880   703A      0.732067  
     704A      0.734896   705A      0.736285   706A      0.737434  
     707A      0.739338   708A      0.742182   709A      0.742570  
     710A      0.743804   711A      0.745973   712A      0.746736  
     713A      0.747983   714A      0.750255   715A      0.753066  
     716A      0.753625   717A      0.755062   718A      0.756109  
     719A      0.757895   720A      0.760139   721A      0.763599  
     722A      0.764198   723A      0.764428   724A      0.766840  
     725A      0.769117   726A      0.770646   727A      0.772542  
     728A      0.773428   729A      0.775920   730A      0.777110  
     731A      0.778690   732A      0.780202   733A      0.781442  
     734A      0.783947   735A      0.786682   736A      0.788520  
     737A      0.790293   738A      0.793117   739A      0.793843  
     740A      0.795576   741A      0.796389   742A      0.796675  
     743A      0.798576   744A      0.799111   745A      0.801146  
     746A      0.802555   747A      0.804197   748A      0.806367  
     749A      0.809022   750A      0.810903   751A      0.813468  
     752A      0.815687   753A      0.817141   754A      0.818377  
     755A      0.820229   756A      0.821420   757A      0.822286  
     758A      0.825225   759A      0.825573   760A      0.827114  
     761A      0.828270   762A      0.829566   763A      0.831753  
     764A      0.834487   765A      0.835605   766A      0.838966  
     767A      0.840209   768A      0.841577   769A      0.844111  
     770A      0.844941   771A      0.846409   772A      0.850547  
     773A      0.853634   774A      0.853914   775A      0.854870  
     776A      0.856196   777A      0.859568   778A      0.860654  
     779A      0.861889   780A      0.862599   781A      0.865537  
     782A      0.868658   783A      0.870645   784A      0.872436  
     785A      0.874845   786A      0.876066   787A      0.876339  
     788A      0.878053   789A      0.881092   790A      0.884035  
     791A      0.885902   792A      0.886801   793A      0.889271  
     794A      0.889685   795A      0.893033   796A      0.897010  
     797A      0.898586   798A      0.899250   799A      0.902556  
     800A      0.903651   801A      0.904671   802A      0.905293  
     803A      0.907101   804A      0.907873   805A      0.910987  
     806A      0.911742   807A      0.915729   808A      0.917275  
     809A      0.919585   810A      0.924681   811A      0.928019  
     812A      0.928523   813A      0.930381   814A      0.932301  
     815A      0.933447   816A      0.935282   817A      0.937130  
     818A      0.939814   819A      0.941500   820A      0.941722  
     821A      0.944888   822A      0.946490   823A      0.948772  
     824A      0.952611   825A      0.953849   826A      0.954436  
     827A      0.956849   828A      0.957226   829A      0.963218  
     830A      0.965731   831A      0.967791   832A      0.968522  
     833A      0.971325   834A      0.972358   835A      0.975595  
     836A      0.978313   837A      0.981067   838A      0.982041  
     839A      0.985368   840A      0.986409   841A      0.988032  
     842A      0.989498   843A      0.990699   844A      0.995100  
     845A      0.997246   846A      0.999443   847A      1.001425  
     848A      1.002166   849A      1.002818   850A      1.005295  
     851A      1.008306   852A      1.009187   853A      1.010794  
     854A      1.011601   855A      1.013221   856A      1.015734  
     857A      1.019312   858A      1.021285   859A      1.024340  
     860A      1.025003   861A      1.026334   862A      1.028414  
     863A      1.029757   864A      1.034314   865A      1.039096  
     866A      1.039851   867A      1.041828   868A      1.044823  
     869A      1.047618   870A      1.051223   871A      1.052879  
     872A      1.055574   873A      1.057216   874A      1.059855  
     875A      1.061558   876A      1.065493   877A      1.067082  
     878A      1.067207   879A      1.069537   880A      1.072056  
     881A      1.074100   882A      1.078612   883A      1.083915  
     884A      1.085732   885A      1.088331   886A      1.089089  
     887A      1.089862   888A      1.090195   889A      1.092079  
     890A      1.096393   891A      1.097327   892A      1.098464  
     893A      1.100956   894A      1.103320   895A      1.104972  
     896A      1.107372   897A      1.108681   898A      1.110313  
     899A      1.111246   900A      1.116723   901A      1.119545  
     902A      1.121501   903A      1.123683   904A      1.131654  
     905A      1.134591   906A      1.136616   907A      1.140387  
     908A      1.141775   909A      1.145168   910A      1.145899  
     911A      1.149568   912A      1.151594   913A      1.158455  
     914A      1.159064   915A      1.160347   916A      1.163288  
     917A      1.163734   918A      1.167164   919A      1.169542  
     920A      1.170529   921A      1.171612   922A      1.180302  
     923A      1.182169   924A      1.185596   925A      1.187565  
     926A      1.189798   927A      1.197155   928A      1.198976  
     929A      1.200417   930A      1.204927   931A      1.211913  
     932A      1.212555   933A      1.213922   934A      1.217165  
     935A      1.223219   936A      1.223843   937A      1.225293  
     938A      1.229495   939A      1.235490   940A      1.236519  
     941A      1.241027   942A      1.245266   943A      1.248609  
     944A      1.249240   945A      1.252301   946A      1.253776  
     947A      1.258445   948A      1.259048   949A      1.261546  
     950A      1.263402   951A      1.263860   952A      1.267689  
     953A      1.267976   954A      1.271996   955A      1.274637  
     956A      1.275608   957A      1.280280   958A      1.285318  
     959A      1.287529   960A      1.290085   961A      1.290757  
     962A      1.291958   963A      1.295468   964A      1.296515  
     965A      1.300337   966A      1.302490   967A      1.306471  
     968A      1.309257   969A      1.315773   970A      1.315914  
     971A      1.317504   972A      1.321696   973A      1.327296  
     974A      1.327907   975A      1.329091   976A      1.334797  
     977A      1.337582   978A      1.339135   979A      1.344311  
     980A      1.347500   981A      1.348804   982A      1.350027  
     983A      1.352504   984A      1.354586   985A      1.356721  
     986A      1.358983   987A      1.359881   988A      1.361253  
     989A      1.369839   990A      1.373787   991A      1.378117  
     992A      1.378906   993A      1.382703   994A      1.383481  
     995A      1.391183   996A      1.392242   997A      1.398516  
     998A      1.400930   999A      1.402370  1000A      1.403742  
    1001A      1.405611  1002A      1.407977  1003A      1.410945  
    1004A      1.413390  1005A      1.417657  1006A      1.419474  
    1007A      1.421790  1008A      1.421901  1009A      1.424053  
    1010A      1.432583  1011A      1.436304  1012A      1.437268  
    1013A      1.439133  1014A      1.441282  1015A      1.444222  
    1016A      1.451775  1017A      1.453557  1018A      1.455221  
    1019A      1.456175  1020A      1.457727  1021A      1.463088  
    1022A      1.466569  1023A      1.468291  1024A      1.469383  
    1025A      1.471387  1026A      1.477475  1027A      1.481945  
    1028A      1.483166  1029A      1.489663  1030A      1.493579  
    1031A      1.499597  1032A      1.502300  1033A      1.505655  
    1034A      1.509813  1035A      1.512484  1036A      1.513616  
    1037A      1.515544  1038A      1.516686  1039A      1.521026  
    1040A      1.525645  1041A      1.528293  1042A      1.531529  
    1043A      1.532446  1044A      1.534471  1045A      1.538192  
    1046A      1.543975  1047A      1.547813  1048A      1.548639  
    1049A      1.550173  1050A      1.555810  1051A      1.563618  
    1052A      1.564965  1053A      1.566618  1054A      1.573884  
    1055A      1.579961  1056A      1.585363  1057A      1.585728  
    1058A      1.590752  1059A      1.590857  1060A      1.592468  
    1061A      1.596409  1062A      1.600747  1063A      1.611367  
    1064A      1.611460  1065A      1.614537  1066A      1.616606  
    1067A      1.616727  1068A      1.618733  1069A      1.619166  
    1070A      1.624768  1071A      1.631723  1072A      1.637508  
    1073A      1.638965  1074A      1.639844  1075A      1.643402  
    1076A      1.646909  1077A      1.649315  1078A      1.654941  
    1079A      1.660796  1080A      1.665618  1081A      1.667272  
    1082A      1.671041  1083A      1.678877  1084A      1.682367  
    1085A      1.686362  1086A      1.688001  1087A      1.689979  
    1088A      1.691611  1089A      1.699438  1090A      1.701372  
    1091A      1.705758  1092A      1.706234  1093A      1.708486  
    1094A      1.716868  1095A      1.722534  1096A      1.725887  
    1097A      1.728370  1098A      1.735093  1099A      1.737861  
    1100A      1.741624  1101A      1.745288  1102A      1.749741  
    1103A      1.751774  1104A      1.758851  1105A      1.763406  
    1106A      1.765081  1107A      1.767410  1108A      1.770619  
    1109A      1.773032  1110A      1.776706  1111A      1.778217  
    1112A      1.783778  1113A      1.785280  1114A      1.785975  
    1115A      1.789456  1116A      1.796709  1117A      1.801177  
    1118A      1.803267  1119A      1.806005  1120A      1.815248  
    1121A      1.817046  1122A      1.819428  1123A      1.823893  
    1124A      1.826935  1125A      1.828477  1126A      1.831682  
    1127A      1.833347  1128A      1.836419  1129A      1.842315  
    1130A      1.843454  1131A      1.849733  1132A      1.852703  
    1133A      1.854713  1134A      1.860531  1135A      1.863140  
    1136A      1.865385  1137A      1.869191  1138A      1.871927  
    1139A      1.875266  1140A      1.877861  1141A      1.878715  
    1142A      1.880528  1143A      1.886390  1144A      1.887637  
    1145A      1.890967  1146A      1.893331  1147A      1.896582  
    1148A      1.899131  1149A      1.904614  1150A      1.906743  
    1151A      1.908944  1152A      1.909749  1153A      1.913585  
    1154A      1.914887  1155A      1.921545  1156A      1.924221  
    1157A      1.931402  1158A      1.931578  1159A      1.942567  
    1160A      1.946496  1161A      1.947066  1162A      1.949973  
    1163A      1.952653  1164A      1.955196  1165A      1.957938  
    1166A      1.958595  1167A      1.962392  1168A      1.964245  
    1169A      1.965737  1170A      1.972147  1171A      1.972664  
    1172A      1.975610  1173A      1.982319  1174A      1.983526  
    1175A      1.984845  1176A      1.985829  1177A      1.987625  
    1178A      1.989321  1179A      1.992373  1180A      1.996392  
    1181A      2.001450  1182A      2.004643  1183A      2.008013  
    1184A      2.015119  1185A      2.016175  1186A      2.020217  
    1187A      2.020998  1188A      2.021044  1189A      2.025088  
    1190A      2.030209  1191A      2.031551  1192A      2.032872  
    1193A      2.033975  1194A      2.038678  1195A      2.040034  
    1196A      2.041827  1197A      2.044002  1198A      2.047549  
    1199A      2.050181  1200A      2.051993  1201A      2.060009  
    1202A      2.065243  1203A      2.066146  1204A      2.070094  
    1205A      2.071671  1206A      2.074397  1207A      2.075929  
    1208A      2.082823  1209A      2.083244  1210A      2.087617  
    1211A      2.089683  1212A      2.092694  1213A      2.093254  
    1214A      2.095387  1215A      2.096120  1216A      2.099934  
    1217A      2.104016  1218A      2.108526  1219A      2.109459  
    1220A      2.111282  1221A      2.116636  1222A      2.120515  
    1223A      2.123662  1224A      2.125631  1225A      2.126014  
    1226A      2.130964  1227A      2.132688  1228A      2.135448  
    1229A      2.139158  1230A      2.139483  1231A      2.141374  
    1232A      2.141908  1233A      2.142452  1234A      2.149218  
    1235A      2.151666  1236A      2.152279  1237A      2.156175  
    1238A      2.160386  1239A      2.162304  1240A      2.166404  
    1241A      2.172582  1242A      2.174407  1243A      2.176419  
    1244A      2.180326  1245A      2.184352  1246A      2.189959  
    1247A      2.191415  1248A      2.195061  1249A      2.198386  
    1250A      2.202530  1251A      2.204374  1252A      2.206637  
    1253A      2.212103  1254A      2.214261  1255A      2.219767  
    1256A      2.221965  1257A      2.226190  1258A      2.226743  
    1259A      2.229401  1260A      2.233756  1261A      2.235663  
    1262A      2.237345  1263A      2.238523  1264A      2.240014  
    1265A      2.245205  1266A      2.252656  1267A      2.265747  
    1268A      2.267360  1269A      2.267523  1270A      2.268724  
    1271A      2.269178  1272A      2.270151  1273A      2.273358  
    1274A      2.277940  1275A      2.280086  1276A      2.280418  
    1277A      2.282310  1278A      2.286660  1279A      2.291353  
    1280A      2.293549  1281A      2.294240  1282A      2.295638  
    1283A      2.295956  1284A      2.305273  1285A      2.309017  
    1286A      2.310749  1287A      2.313775  1288A      2.314501  
    1289A      2.315761  1290A      2.320870  1291A      2.322609  
    1292A      2.325051  1293A      2.330309  1294A      2.332538  
    1295A      2.334535  1296A      2.337109  1297A      2.343256  
    1298A      2.345911  1299A      2.349626  1300A      2.351364  
    1301A      2.352348  1302A      2.353575  1303A      2.357757  
    1304A      2.358939  1305A      2.364659  1306A      2.367259  
    1307A      2.369261  1308A      2.370535  1309A      2.371509  
    1310A      2.372703  1311A      2.376285  1312A      2.380758  
    1313A      2.386204  1314A      2.387753  1315A      2.396256  
    1316A      2.398393  1317A      2.401402  1318A      2.404052  
    1319A      2.405409  1320A      2.408685  1321A      2.413401  
    1322A      2.413745  1323A      2.416686  1324A      2.421774  
    1325A      2.423563  1326A      2.428211  1327A      2.433553  
    1328A      2.436460  1329A      2.438272  1330A      2.440285  
    1331A      2.441694  1332A      2.442924  1333A      2.447491  
    1334A      2.454496  1335A      2.459028  1336A      2.459441  
    1337A      2.463586  1338A      2.467616  1339A      2.473014  
    1340A      2.474511  1341A      2.477009  1342A      2.481307  
    1343A      2.483517  1344A      2.486465  1345A      2.491263  
    1346A      2.497735  1347A      2.500109  1348A      2.501168  
    1349A      2.506513  1350A      2.508336  1351A      2.508517  
    1352A      2.509721  1353A      2.513742  1354A      2.517426  
    1355A      2.519988  1356A      2.521300  1357A      2.524184  
    1358A      2.530998  1359A      2.536846  1360A      2.537935  
    1361A      2.541293  1362A      2.544074  1363A      2.546712  
    1364A      2.551368  1365A      2.552562  1366A      2.554593  
    1367A      2.556530  1368A      2.560479  1369A      2.563978  
    1370A      2.567581  1371A      2.571166  1372A      2.574148  
    1373A      2.576915  1374A      2.577394  1375A      2.584707  
    1376A      2.586723  1377A      2.587905  1378A      2.594111  
    1379A      2.598253  1380A      2.601463  1381A      2.604984  
    1382A      2.609230  1383A      2.613920  1384A      2.615081  
    1385A      2.621757  1386A      2.622670  1387A      2.624303  
    1388A      2.627566  1389A      2.628073  1390A      2.632382  
    1391A      2.641388  1392A      2.642435  1393A      2.648906  
    1394A      2.651214  1395A      2.655323  1396A      2.660241  
    1397A      2.669040  1398A      2.669436  1399A      2.683711  
    1400A      2.686035  1401A      2.695313  1402A      2.699343  
    1403A      2.702364  1404A      2.703269  1405A      2.705401  
    1406A      2.707275  1407A      2.713849  1408A      2.721986  
    1409A      2.730048  1410A      2.731074  1411A      2.736581  
    1412A      2.738667  1413A      2.739141  1414A      2.746676  
    1415A      2.747304  1416A      2.759342  1417A      2.762822  
    1418A      2.763398  1419A      2.766467  1420A      2.771216  
    1421A      2.772491  1422A      2.774199  1423A      2.777559  
    1424A      2.781212  1425A      2.796184  1426A      2.796317  
    1427A      2.801398  1428A      2.805798  1429A      2.812386  
    1430A      2.814393  1431A      2.823232  1432A      2.830903  
    1433A      2.833925  1434A      2.838568  1435A      2.848109  
    1436A      2.856844  1437A      2.866704  1438A      2.868533  
    1439A      2.871575  1440A      2.874435  1441A      2.875661  
    1442A      2.876690  1443A      2.878247  1444A      2.879643  
    1445A      2.884083  1446A      2.887828  1447A      2.892056  
    1448A      2.892475  1449A      2.901683  1450A      2.903237  
    1451A      2.907556  1452A      2.911030  1453A      2.911749  
    1454A      2.914458  1455A      2.916195  1456A      2.917185  
    1457A      2.921032  1458A      2.922366  1459A      2.925795  
    1460A      2.928316  1461A      2.940817  1462A      2.946625  
    1463A      2.949190  1464A      2.950850  1465A      2.952676  
    1466A      2.965934  1467A      2.971708  1468A      2.971742  
    1469A      2.981159  1470A      2.985674  1471A      2.988833  
    1472A      2.997033  1473A      2.999687  1474A      3.003653  
    1475A      3.006286  1476A      3.012098  1477A      3.020810  
    1478A      3.022264  1479A      3.025868  1480A      3.032547  
    1481A      3.034085  1482A      3.037343  1483A      3.048834  
    1484A      3.057332  1485A      3.064272  1486A      3.068678  
    1487A      3.075847  1488A      3.081069  1489A      3.088967  
    1490A      3.100590  1491A      3.109363  1492A      3.117900  
    1493A      3.118713  1494A      3.133430  1495A      3.136427  
    1496A      3.142542  1497A      3.158694  1498A      3.170291  
    1499A      3.178052  1500A      3.182524  1501A      3.183203  
    1502A      3.190838  1503A      3.191462  1504A      3.196664  
    1505A      3.207207  1506A      3.209837  1507A      3.230829  
    1508A      3.237124  1509A      3.239731  1510A      3.246351  
    1511A      3.278442  1512A      3.283117  1513A      3.287915  
    1514A      3.293003  1515A      3.319249  1516A      3.330026  
    1517A      3.337460  1518A      3.347278  1519A      3.355699  
    1520A      3.373359  1521A      3.389060  1522A      3.417521  
    1523A      3.425287  1524A      3.444460  1525A      3.447890  
    1526A      3.461691  1527A      3.461982  1528A      3.465562  
    1529A      3.471681  1530A      3.475834  1531A      3.486613  
    1532A      3.489687  1533A      3.498555  1534A      3.525774  
    1535A      3.537682  1536A      3.565799  1537A      3.566923  
    1538A      3.575491  1539A      3.576692  1540A      3.584944  
    1541A      3.593859  1542A      3.606863  1543A      3.635028  
    1544A      3.642344  1545A      3.648392  1546A      3.651329  
    1547A      3.659273  1548A      3.676520  1549A      3.682844  
    1550A      3.686554  1551A      3.695903  1552A      3.710914  
    1553A      3.735518  1554A      3.740887  1555A      3.742953  
    1556A      3.743290  1557A      3.748063  1558A      3.749452  
    1559A      3.753162  1560A      3.754911  1561A      3.760522  
    1562A      3.763980  1563A      3.766447  1564A      3.768286  
    1565A      3.771940  1566A      3.779694  1567A      3.780532  
    1568A      3.785931  1569A      3.790852  1570A      3.795007  
    1571A      3.795169  1572A      3.803527  1573A      3.804514  
    1574A      3.815685  1575A      3.818392  1576A      3.825466  
    1577A      3.827506  1578A      3.833164  1579A      3.836717  
    1580A      3.838981  1581A      3.844634  1582A      3.847469  
    1583A      3.847602  1584A      3.852645  1585A      3.854423  
    1586A      3.862547  1587A      3.871568  1588A      3.874861  
    1589A      3.878818  1590A      3.880636  1591A      3.887019  
    1592A      3.890795  1593A      3.898775  1594A      3.906303  
    1595A      3.910549  1596A      3.921298  1597A      3.931858  
    1598A      3.935879  1599A      3.943188  1600A      3.945345  
    1601A      3.947586  1602A      3.952300  1603A      3.954812  
    1604A      3.959253  1605A      3.966995  1606A      3.968969  
    1607A      3.975798  1608A      3.979868  1609A      3.984717  
    1610A      3.993248  1611A      3.995778  1612A      4.016701  
    1613A      4.032193  1614A      4.034558  1615A      4.071877  
    1616A      4.082515  1617A      4.084829  1618A      4.089670  
    1619A      4.098970  1620A      4.110315  1621A      4.123227  
    1622A      4.128066  1623A      4.133938  1624A      4.142668  
    1625A      4.162631  1626A      4.177754  1627A      4.181311  
    1628A      4.185565  1629A      4.197254  1630A      4.204330  
    1631A      4.211546  1632A      4.221349  1633A      4.265882  
    1634A      4.287739  1635A      4.308622  1636A      4.363838  
    1637A      4.409032  1638A      4.427898  1639A      4.454864  
    1640A      4.465358  1641A      4.637696  

    Final Occupation by Irrep:
              A 
    DOCC [   199 ]

  Energy converged.

  @DF-RHF Final Energy: -2686.24030625473097

   => Energetics <=

    Nuclear Repulsion Energy =           6201.5436595934152137
    One-Electron Energy =              -16032.9739774287027103
    Two-Electron Energy =                7145.1900115805565292
    Total Energy =                      -2686.2403062547309673



Properties will be evaluated at   0.000000,   0.000000,   0.000000 Bohr

Properties computed using the SCF density matrix

  Nuclear Dipole Moment: (a.u.)
     X:   -36.4282      Y:   -12.7853      Z:    -6.2450

  Electronic Dipole Moment: (a.u.)
     X:    35.5023      Y:    11.2949      Z:     6.6726

  Dipole Moment: (a.u.)
     X:    -0.9259      Y:    -1.4904      Z:     0.4276     Total:     1.8059

  Dipole Moment: (Debye)
     X:    -2.3535      Y:    -3.7882      Z:     1.0869     Total:     4.5903


*** tstop() called on hex15 at Sun Mar  4 19:43:24 2018
Module time:
	user time   =    5967.11 seconds =      99.45 minutes
	system time =     667.94 seconds =      11.13 minutes
	total time  =       4407 seconds =      73.45 minutes
Total time:
	user time   =    5967.11 seconds =      99.45 minutes
	system time =     667.94 seconds =      11.13 minutes
	total time  =       4407 seconds =      73.45 minutes

*** Psi4 exiting successfully. Buy a developer a beer!
