
    -----------------------------------------------------------------------
          Psi4: An Open-Source Ab Initio Electronic Structure Package
                               Psi4 1.2a1.dev875 

                         Git: Rev {symm_JK} 0ea9481 dirty


    R. M. Parrish, L. A. Burns, D. G. A. Smith, A. C. Simmonett,
    A. E. DePrince III, E. G. Hohenstein, U. Bozkaya, A. Yu. Sokolov,
    R. Di Remigio, R. M. Richard, J. F. Gonthier, A. M. James,
    H. R. McAlexander, A. Kumar, M. Saitow, X. Wang, B. P. Pritchard,
    P. Verma, H. F. Schaefer III, K. Patkowski, R. A. King, E. F. Valeev,
    F. A. Evangelista, J. M. Turney, T. D. Crawford, and C. D. Sherrill,
    J. Chem. Theory Comput. 13(7) pp 3185--3197 (2017).
    (doi: 10.1021/acs.jctc.7b00174)

    -----------------------------------------------------------------------


    Psi4 started on: Thursday, 01 March 2018 05:19PM

    Process ID:  28284
    PSIDATADIR: /theoryfs2/ds/schieber/Gits/mspsi4/objdir3/stage/usr/local/psi4/share/psi4
    Memory:     500.0 MiB
    Threads:    6
    
  ==> Input File <==

--------------------------------------------------------------------------
memory 60 Gb

molecule protein_30 {
0 1
 N   18.626  30.444   6.627
 C   17.853  29.516   5.837
 C   16.945  30.292   4.886
 O   15.843  30.678   5.237
 C   17.047  28.642   6.811
 C   16.316  27.513   6.146
 O   16.236  27.458   4.905
 O   15.762  26.696   6.882
 N   17.407  27.054  -1.437
 C   17.227  26.751  -0.026
 C   18.555  26.446   0.653
 O   19.003  25.309   0.692
 C   16.258  25.572   0.084
 C   15.759  25.336   1.493
 O   16.399  25.780   2.453
 O   14.731  24.675   1.645
 H   18.180  30.990   7.295
 H   18.510  28.835   5.249
 H   16.336  29.276   7.377
 H   17.778  28.186   7.516
 H   15.845  26.702   7.843
 H   17.860  26.421  -2.023
 H   16.724  27.595   0.500
 H   16.724  24.663  -0.337
 H   15.363  25.845  -0.519
 H   16.737  25.171   3.109
 H   19.646  30.419   6.619
 H   17.295  30.415   3.850
 H   16.947  27.858  -1.864
 H   19.060  27.284   1.155
}

set {
basis cc-pvtz
scf_type df
guess sad
DF_SCF_TYPE SYMM_JK
}

energy('HF')
--------------------------------------------------------------------------

  Memory set to  55.879 GiB by Python driver.

*** tstart() called on hex15
*** at Thu Mar  1 17:19:28 2018

   => Loading Basis Set <=

    Name: CC-PVTZ
    Role: ORBITAL
    Keyword: BASIS
    atoms 1, 9                   entry N          line   224 file /theoryfs2/ds/schieber/Gits/mspsi4/objdir3/stage/usr/local/psi4/share/psi4/basis/cc-pvtz.gbs 
    atoms 2-3, 5-6, 10-11, 13-14 entry C          line   186 file /theoryfs2/ds/schieber/Gits/mspsi4/objdir3/stage/usr/local/psi4/share/psi4/basis/cc-pvtz.gbs 
    atoms 4, 7-8, 12, 15-16      entry O          line   262 file /theoryfs2/ds/schieber/Gits/mspsi4/objdir3/stage/usr/local/psi4/share/psi4/basis/cc-pvtz.gbs 
    atoms 17-30                  entry H          line    23 file /theoryfs2/ds/schieber/Gits/mspsi4/objdir3/stage/usr/local/psi4/share/psi4/basis/cc-pvtz.gbs 


         ---------------------------------------------------------
                                   SCF
            by Justin Turney, Rob Parrish, Andy Simmonett
                             and Daniel Smith
                              RHF Reference
                        6 Threads,  57220 MiB Core
         ---------------------------------------------------------

  ==> Geometry <==

    Molecular point group: c1
    Full point group: C1

    Geometry (in Angstrom), charge = 0, multiplicity = 1:

       Center              X                  Y                   Z               Mass       
    ------------   -----------------  -----------------  -----------------  -----------------
           N          1.759981620253     3.071942570653     3.302034477710    14.003074004780
           C          0.986981620253     2.143942570653     2.512034477710    12.000000000000
           C          0.078981620253     2.919942570653     1.561034477710    12.000000000000
           O         -1.023018379747     3.305942570653     1.912034477710    15.994914619560
           C          0.180981620253     1.269942570653     3.486034477710    12.000000000000
           C         -0.550018379747     0.140942570653     2.821034477710    12.000000000000
           O         -0.630018379747     0.085942570653     1.580034477710    15.994914619560
           O         -1.104018379747    -0.676057429347     3.557034477710    15.994914619560
           N          0.540981620253    -0.318057429347    -4.761965522290    14.003074004780
           C          0.360981620253    -0.621057429347    -3.350965522290    12.000000000000
           C          1.688981620253    -0.926057429347    -2.671965522290    12.000000000000
           O          2.136981620253    -2.063057429347    -2.632965522290    15.994914619560
           C         -0.608018379747    -1.800057429347    -3.240965522290    12.000000000000
           C         -1.107018379747    -2.036057429347    -1.831965522290    12.000000000000
           O         -0.467018379747    -1.592057429347    -0.871965522290    15.994914619560
           O         -2.135018379747    -2.697057429347    -1.679965522290    15.994914619560
           H          1.313981620253     3.617942570653     3.970034477710     1.007825032070
           H          1.643981620253     1.462942570653     1.924034477710     1.007825032070
           H         -0.530018379747     1.903942570653     4.052034477710     1.007825032070
           H          0.911981620253     0.813942570653     4.191034477710     1.007825032070
           H         -1.021018379747    -0.670057429347     4.518034477710     1.007825032070
           H          0.993981620253    -0.951057429347    -5.347965522290     1.007825032070
           H         -0.142018379747     0.222942570653    -2.824965522290     1.007825032070
           H         -0.142018379747    -2.709057429347    -3.661965522290     1.007825032070
           H         -1.503018379747    -1.527057429347    -3.843965522290     1.007825032070
           H         -0.129018379747    -2.201057429347    -0.215965522290     1.007825032070
           H          2.779981620253     3.046942570653     3.294034477710     1.007825032070
           H          0.428981620253     3.042942570653     0.525034477710     1.007825032070
           H          0.080981620253     0.485942570653    -5.188965522290     1.007825032070
           H          2.193981620253    -0.088057429347    -2.169965522290     1.007825032070

  Running in c1 symmetry.

  Rotational constants: A =      0.02246  B =      0.00667  C =      0.00592 [cm^-1]
  Rotational constants: A =    673.47508  B =    199.82875  C =    177.40117 [MHz]
  Nuclear repulsion = 1089.601628930780862

  Charge       = 0
  Multiplicity = 1
  Electrons    = 124
  Nalpha       = 62
  Nbeta        = 62

  ==> Algorithm <==

  SCF Algorithm Type is DF.
  DIIS enabled.
  MOM disabled.
  Fractional occupation disabled.
  Guess Type is SAD.
  Energy threshold   = 1.00e-06
  Density threshold  = 1.00e-06
  Integral threshold = 0.00e+00

  ==> Primary Basis <==

  Basis Set: CC-PVTZ
    Blend: CC-PVTZ
    Number of shells: 244
    Number of basis function: 676
    Number of Cartesian functions: 770
    Spherical Harmonics?: true
    Max angular momentum: 3

   => Loading Basis Set <=

    Name: (CC-PVTZ AUX)
    Role: JKFIT
    Keyword: DF_BASIS_SCF
    atoms 1, 9                   entry N          line   177 file /theoryfs2/ds/schieber/Gits/mspsi4/objdir3/stage/usr/local/psi4/share/psi4/basis/cc-pvtz-jkfit.gbs 
    atoms 2-3, 5-6, 10-11, 13-14 entry C          line   125 file /theoryfs2/ds/schieber/Gits/mspsi4/objdir3/stage/usr/local/psi4/share/psi4/basis/cc-pvtz-jkfit.gbs 
    atoms 4, 7-8, 12, 15-16      entry O          line   229 file /theoryfs2/ds/schieber/Gits/mspsi4/objdir3/stage/usr/local/psi4/share/psi4/basis/cc-pvtz-jkfit.gbs 
    atoms 17-30                  entry H          line    51 file /theoryfs2/ds/schieber/Gits/mspsi4/objdir3/stage/usr/local/psi4/share/psi4/basis/cc-pvtz-jkfit.gbs 

  ==> Pre-Iterations <==

   -------------------------------------------------------
    Irrep   Nso     Nmo     Nalpha   Nbeta   Ndocc  Nsocc
   -------------------------------------------------------
     A        676     676       0       0       0       0
   -------------------------------------------------------
    Total     676     676      62      62      62       0
   -------------------------------------------------------

  ==> Integral Setup <==


    ==> DF_Helper <==
      nao           = 676
      naux          = 1684
      Scwarz cutoff = 1.000000E-12
      mem (doubles) = 5625000000
      nthreads      = 6
      Algorithm     = STORE
      AO_core?      = 1
      MO_core?      = 0
      hold metric   = 0
      metric power  = -5.000000E-01
  Fitting condition = 1.000000E-12
  Mask sparsity (%) = (40.253317)


  Minimum eigenvalue in the overlap matrix is 2.8706627472E-04.
  Using Symmetric Orthogonalization.

  SCF Guess: Superposition of Atomic Densities via on-the-fly atomic UHF.

  ==> Iterations <==

                           Total Energy        Delta E     RMS |[F,P]|

   @DF-RHF iter   0:  -875.16872357675732   -8.75169e+02   2.73530e-02 
   @DF-RHF iter   1:  -868.82806140626053    6.34066e+00   3.75426e-03 
   @DF-RHF iter   2:  -869.20940585513677   -3.81344e-01   2.68627e-03 DIIS
   @DF-RHF iter   3:  -869.40455884155836   -1.95153e-01   5.23699e-04 DIIS
   @DF-RHF iter   4:  -869.42193391636056   -1.73751e-02   1.89281e-04 DIIS
   @DF-RHF iter   5:  -869.42452585546800   -2.59194e-03   7.42993e-05 DIIS
   @DF-RHF iter   6:  -869.42514440625723   -6.18551e-04   3.58380e-05 DIIS
   @DF-RHF iter   7:  -869.42529694015855   -1.52534e-04   1.39288e-05 DIIS
   @DF-RHF iter   8:  -869.42531967089872   -2.27307e-05   6.24271e-06 DIIS
   @DF-RHF iter   9:  -869.42532406556711   -4.39467e-06   2.34281e-06 DIIS
   @DF-RHF iter  10:  -869.42532488677239   -8.21205e-07   1.08691e-06 DIIS
   @DF-RHF iter  11:  -869.42532510905630   -2.22284e-07   4.65720e-07 DIIS

  ==> Post-Iterations <==

    Orbital Energies (a.u.)
    -----------------------

    Doubly Occupied:                                                      

       1A    -20.637647     2A    -20.591364     3A    -20.560259  
       4A    -20.555298     5A    -20.529910     6A    -20.505049  
       7A    -15.553055     8A    -15.542620     9A    -11.387448  
      10A    -11.356304    11A    -11.335596    12A    -11.332775  
      13A    -11.293403    14A    -11.281758    15A    -11.260064  
      16A    -11.230275    17A     -1.520530    18A     -1.487069  
      19A     -1.389129    20A     -1.386874    21A     -1.346788  
      22A     -1.322604    23A     -1.209793    24A     -1.193997  
      25A     -1.050494    26A     -1.034724    27A     -0.944818  
      28A     -0.927636    29A     -0.900041    30A     -0.861708  
      31A     -0.797800    32A     -0.786037    33A     -0.742798  
      34A     -0.722557    35A     -0.712312    36A     -0.686075  
      37A     -0.683862    38A     -0.683528    39A     -0.677379  
      40A     -0.654310    41A     -0.653736    42A     -0.643970  
      43A     -0.637218    44A     -0.625602    45A     -0.620428  
      46A     -0.613480    47A     -0.568699    48A     -0.555157  
      49A     -0.550713    50A     -0.527498    51A     -0.521577  
      52A     -0.512307    53A     -0.510093    54A     -0.495827  
      55A     -0.465040    56A     -0.454492    57A     -0.446639  
      58A     -0.439472    59A     -0.437459    60A     -0.426093  
      61A     -0.382234    62A     -0.369838  

    Virtual:                                                              

      63A      0.103231    64A      0.112807    65A      0.119753  
      66A      0.123431    67A      0.146197    68A      0.152947  
      69A      0.157680    70A      0.163269    71A      0.171773  
      72A      0.179966    73A      0.186983    74A      0.190986  
      75A      0.198382    76A      0.207906    77A      0.226523  
      78A      0.231953    79A      0.237890    80A      0.252528  
      81A      0.294818    82A      0.302290    83A      0.318629  
      84A      0.338781    85A      0.347941    86A      0.353439  
      87A      0.358664    88A      0.372635    89A      0.376824  
      90A      0.392665    91A      0.400280    92A      0.411453  
      93A      0.415759    94A      0.425320    95A      0.446068  
      96A      0.447414    97A      0.454609    98A      0.464903  
      99A      0.477371   100A      0.480824   101A      0.492167  
     102A      0.497362   103A      0.511789   104A      0.515287  
     105A      0.527912   106A      0.537500   107A      0.547491  
     108A      0.550599   109A      0.558360   110A      0.564656  
     111A      0.576555   112A      0.579425   113A      0.585690  
     114A      0.594822   115A      0.598870   116A      0.609086  
     117A      0.610903   118A      0.612420   119A      0.621343  
     120A      0.627053   121A      0.635598   122A      0.638838  
     123A      0.654304   124A      0.655652   125A      0.658263  
     126A      0.661403   127A      0.670302   128A      0.670976  
     129A      0.681155   130A      0.691588   131A      0.694235  
     132A      0.695825   133A      0.713035   134A      0.717104  
     135A      0.719640   136A      0.724685   137A      0.739535  
     138A      0.745140   139A      0.752126   140A      0.753539  
     141A      0.763780   142A      0.769289   143A      0.776874  
     144A      0.788305   145A      0.794923   146A      0.802255  
     147A      0.812994   148A      0.822755   149A      0.833398  
     150A      0.842761   151A      0.852520   152A      0.861908  
     153A      0.877703   154A      0.887381   155A      0.896233  
     156A      0.905797   157A      0.912917   158A      0.922553  
     159A      0.935244   160A      0.937458   161A      0.947339  
     162A      0.949851   163A      0.958648   164A      0.966344  
     165A      0.971760   166A      0.976924   167A      0.989279  
     168A      0.995013   169A      1.018014   170A      1.034638  
     171A      1.043805   172A      1.054530   173A      1.071258  
     174A      1.085450   175A      1.085835   176A      1.107560  
     177A      1.114650   178A      1.124119   179A      1.130537  
     180A      1.142930   181A      1.153327   182A      1.170342  
     183A      1.177966   184A      1.190201   185A      1.191156  
     186A      1.202114   187A      1.206528   188A      1.208529  
     189A      1.221460   190A      1.236733   191A      1.239972  
     192A      1.253072   193A      1.265141   194A      1.270583  
     195A      1.278838   196A      1.283699   197A      1.304060  
     198A      1.307216   199A      1.314739   200A      1.324659  
     201A      1.330900   202A      1.337493   203A      1.346408  
     204A      1.356660   205A      1.364079   206A      1.370815  
     207A      1.380222   208A      1.388865   209A      1.400550  
     210A      1.409670   211A      1.416308   212A      1.433286  
     213A      1.434540   214A      1.444488   215A      1.451417  
     216A      1.461812   217A      1.476512   218A      1.477783  
     219A      1.488109   220A      1.492562   221A      1.510690  
     222A      1.516438   223A      1.531295   224A      1.543904  
     225A      1.550774   226A      1.572187   227A      1.575855  
     228A      1.588156   229A      1.590228   230A      1.604472  
     231A      1.614504   232A      1.627679   233A      1.629408  
     234A      1.638319   235A      1.640628   236A      1.652570  
     237A      1.659661   238A      1.661582   239A      1.677517  
     240A      1.686773   241A      1.717116   242A      1.730466  
     243A      1.743298   244A      1.747343   245A      1.758621  
     246A      1.776779   247A      1.805912   248A      1.815012  
     249A      1.831457   250A      1.837229   251A      1.870381  
     252A      1.884231   253A      1.911542   254A      1.922554  
     255A      1.928767   256A      1.938133   257A      1.941848  
     258A      1.954629   259A      1.965159   260A      1.979809  
     261A      1.987555   262A      2.002615   263A      2.003996  
     264A      2.019048   265A      2.026626   266A      2.048299  
     267A      2.059109   268A      2.078680   269A      2.095907  
     270A      2.097365   271A      2.130504   272A      2.132647  
     273A      2.221027   274A      2.232843   275A      2.244810  
     276A      2.285753   277A      2.310178   278A      2.320733  
     279A      2.329430   280A      2.356744   281A      2.365160  
     282A      2.366726   283A      2.379555   284A      2.390136  
     285A      2.412202   286A      2.416333   287A      2.448367  
     288A      2.452340   289A      2.469429   290A      2.474590  
     291A      2.488312   292A      2.512238   293A      2.525023  
     294A      2.537741   295A      2.548254   296A      2.568178  
     297A      2.596802   298A      2.629729   299A      2.641786  
     300A      2.647997   301A      2.652230   302A      2.664861  
     303A      2.755194   304A      2.759555   305A      2.764584  
     306A      2.771598   307A      2.786038   308A      2.791257  
     309A      2.825459   310A      2.832619   311A      2.855609  
     312A      2.862933   313A      2.868178   314A      2.874015  
     315A      2.890318   316A      2.908271   317A      2.922040  
     318A      2.928954   319A      2.929721   320A      2.951324  
     321A      2.956770   322A      2.968480   323A      2.979978  
     324A      3.001981   325A      3.005848   326A      3.010394  
     327A      3.014523   328A      3.031142   329A      3.058284  
     330A      3.066311   331A      3.072199   332A      3.079768  
     333A      3.115937   334A      3.122877   335A      3.142363  
     336A      3.157527   337A      3.162150   338A      3.169223  
     339A      3.175883   340A      3.190203   341A      3.200475  
     342A      3.205677   343A      3.217621   344A      3.219012  
     345A      3.243297   346A      3.254405   347A      3.267087  
     348A      3.276651   349A      3.282622   350A      3.292328  
     351A      3.297716   352A      3.303675   353A      3.306408  
     354A      3.318381   355A      3.323158   356A      3.340041  
     357A      3.349251   358A      3.353208   359A      3.366638  
     360A      3.375421   361A      3.385493   362A      3.395091  
     363A      3.407838   364A      3.417689   365A      3.419723  
     366A      3.426571   367A      3.427931   368A      3.438767  
     369A      3.444076   370A      3.458068   371A      3.462129  
     372A      3.469405   373A      3.474432   374A      3.489600  
     375A      3.499639   376A      3.501767   377A      3.508202  
     378A      3.511261   379A      3.516981   380A      3.532810  
     381A      3.539742   382A      3.546371   383A      3.562374  
     384A      3.566309   385A      3.575399   386A      3.587523  
     387A      3.595089   388A      3.616445   389A      3.622905  
     390A      3.628759   391A      3.636408   392A      3.646963  
     393A      3.652765   394A      3.663198   395A      3.677374  
     396A      3.684486   397A      3.689809   398A      3.697566  
     399A      3.704398   400A      3.707162   401A      3.732379  
     402A      3.737406   403A      3.742249   404A      3.751921  
     405A      3.765996   406A      3.774040   407A      3.775441  
     408A      3.793875   409A      3.806930   410A      3.829843  
     411A      3.831460   412A      3.850515   413A      3.858105  
     414A      3.858907   415A      3.877261   416A      3.880804  
     417A      3.905300   418A      3.913298   419A      3.918126  
     420A      3.922993   421A      3.930738   422A      3.941983  
     423A      3.955153   424A      3.966262   425A      3.976333  
     426A      3.987429   427A      3.987632   428A      4.001671  
     429A      4.010051   430A      4.016129   431A      4.027486  
     432A      4.033106   433A      4.048330   434A      4.050570  
     435A      4.068207   436A      4.077732   437A      4.079866  
     438A      4.117156   439A      4.120215   440A      4.124848  
     441A      4.127925   442A      4.151685   443A      4.155347  
     444A      4.159653   445A      4.169319   446A      4.172566  
     447A      4.179619   448A      4.193138   449A      4.201311  
     450A      4.212937   451A      4.231266   452A      4.240065  
     453A      4.243666   454A      4.270388   455A      4.274358  
     456A      4.282705   457A      4.284189   458A      4.292297  
     459A      4.300744   460A      4.316394   461A      4.320607  
     462A      4.332106   463A      4.338276   464A      4.341862  
     465A      4.343492   466A      4.356696   467A      4.369454  
     468A      4.383081   469A      4.387521   470A      4.415363  
     471A      4.417900   472A      4.428820   473A      4.429983  
     474A      4.438815   475A      4.444107   476A      4.468910  
     477A      4.471495   478A      4.473695   479A      4.491917  
     480A      4.500439   481A      4.516367   482A      4.526564  
     483A      4.529623   484A      4.564923   485A      4.569071  
     486A      4.573526   487A      4.578637   488A      4.586851  
     489A      4.594695   490A      4.615770   491A      4.618888  
     492A      4.633651   493A      4.638033   494A      4.657304  
     495A      4.669281   496A      4.670060   497A      4.679902  
     498A      4.685830   499A      4.714614   500A      4.725129  
     501A      4.732513   502A      4.740115   503A      4.752991  
     504A      4.774049   505A      4.786174   506A      4.797436  
     507A      4.808459   508A      4.816102   509A      4.855928  
     510A      4.867053   511A      4.879760   512A      4.880549  
     513A      4.901039   514A      4.917266   515A      4.928420  
     516A      4.942002   517A      4.975055   518A      5.000939  
     519A      5.032816   520A      5.045835   521A      5.052349  
     522A      5.084239   523A      5.089094   524A      5.107842  
     525A      5.122806   526A      5.150398   527A      5.151922  
     528A      5.162744   529A      5.191036   530A      5.193674  
     531A      5.227530   532A      5.233485   533A      5.246648  
     534A      5.251418   535A      5.263714   536A      5.270251  
     537A      5.298424   538A      5.304368   539A      5.306276  
     540A      5.328302   541A      5.329653   542A      5.341478  
     543A      5.353251   544A      5.362452   545A      5.381344  
     546A      5.393947   547A      5.437487   548A      5.456995  
     549A      5.491515   550A      5.508630   551A      5.515328  
     552A      5.520744   553A      5.538764   554A      5.548070  
     555A      5.609626   556A      5.610678   557A      5.635649  
     558A      5.651915   559A      5.663488   560A      5.664806  
     561A      5.668164   562A      5.686227   563A      5.688282  
     564A      5.690854   565A      5.695672   566A      5.699885  
     567A      5.728785   568A      5.730932   569A      5.763236  
     570A      5.771245   571A      5.792083   572A      5.824369  
     573A      5.831508   574A      5.858344   575A      5.873950  
     576A      5.886763   577A      5.888475   578A      5.992723  
     579A      6.003803   580A      6.013185   581A      6.023530  
     582A      6.024547   583A      6.067073   584A      6.073020  
     585A      6.092040   586A      6.096458   587A      6.106588  
     588A      6.136105   589A      6.138124   590A      6.162235  
     591A      6.176583   592A      6.192677   593A      6.200704  
     594A      6.208265   595A      6.234946   596A      6.237346  
     597A      6.264736   598A      6.286584   599A      6.308061  
     600A      6.354864   601A      6.441651   602A      6.484114  
     603A      6.485595   604A      6.577902   605A      6.617981  
     606A      6.628147   607A      6.645678   608A      6.657015  
     609A      6.699844   610A      6.702682   611A      6.712762  
     612A      6.721882   613A      6.754207   614A      6.773694  
     615A      6.786661   616A      6.820293   617A      6.837893  
     618A      6.845304   619A      6.917618   620A      6.925566  
     621A      6.933619   622A      6.935377   623A      6.960843  
     624A      6.975880   625A      6.984613   626A      7.001886  
     627A      7.016192   628A      7.018919   629A      7.048964  
     630A      7.054311   631A      7.077788   632A      7.187776  
     633A      7.222665   634A      7.235741   635A      7.243200  
     636A      7.250179   637A      7.281478   638A      7.335433  
     639A      7.343884   640A      7.358733   641A      7.363157  
     642A      7.383494   643A      7.390357   644A      7.397006  
     645A      7.409665   646A      7.444128   647A      7.519428  
     648A      7.525615   649A      7.556056   650A      7.558300  
     651A      7.588040   652A      7.590560   653A      7.631993  
     654A      7.682703   655A      7.757844   656A      7.772344  
     657A      7.836277   658A      7.885640   659A      8.125129  
     660A      8.149562   661A      9.990283   662A     10.121624  
     663A     10.502462   664A     10.580990   665A     12.082320  
     666A     12.107918   667A     12.989026   668A     13.087320  
     669A     13.344332   670A     13.523086   671A     13.678825  
     672A     13.731817   673A     14.204175   674A     14.273493  
     675A     14.596442   676A     14.706845  

    Final Occupation by Irrep:
              A 
    DOCC [    62 ]

  Energy converged.

  @DF-RHF Final Energy:  -869.42532510905630

   => Energetics <=

    Nuclear Repulsion Energy =           1089.6016289307808620
    One-Electron Energy =               -3357.7875133129014102
    Two-Electron Energy =                1398.7605592730642456
    Total Energy =                       -869.4253251090563026



Properties will be evaluated at   0.000000,   0.000000,   0.000000 Bohr

Properties computed using the SCF density matrix

  Nuclear Dipole Moment: (a.u.)
     X:     6.4283      Y:     6.0223      Z:    -0.7176

  Electronic Dipole Moment: (a.u.)
     X:    -4.3443      Y:    -4.8129      Z:     2.4917

  Dipole Moment: (a.u.)
     X:     2.0840      Y:     1.2094      Z:     1.7741     Total:     2.9922

  Dipole Moment: (Debye)
     X:     5.2970      Y:     3.0739      Z:     4.5093     Total:     7.6053


*** tstop() called on hex15 at Thu Mar  1 17:20:14 2018
Module time:
	user time   =     142.06 seconds =       2.37 minutes
	system time =       2.77 seconds =       0.05 minutes
	total time  =         46 seconds =       0.77 minutes
Total time:
	user time   =     142.06 seconds =       2.37 minutes
	system time =       2.77 seconds =       0.05 minutes
	total time  =         46 seconds =       0.77 minutes

*** Psi4 exiting successfully. Buy a developer a beer!
