
Host: hex15

Timers On : Fri Mar  2 15:43:31 2018
Timers Off: Fri Mar  2 15:43:35 2018

Wall Time:        3.20 seconds


-----------------------------------------------------------

***********************************************************
