
    -----------------------------------------------------------------------
          Psi4: An Open-Source Ab Initio Electronic Structure Package
                               Psi4 1.2a1.dev875 

                         Git: Rev {symm_JK} 0ea9481 dirty


    R. M. Parrish, L. A. Burns, D. G. A. Smith, A. C. Simmonett,
    A. E. DePrince III, E. G. Hohenstein, U. Bozkaya, A. Yu. Sokolov,
    R. Di Remigio, R. M. Richard, J. F. Gonthier, A. M. James,
    H. R. McAlexander, A. Kumar, M. Saitow, X. Wang, B. P. Pritchard,
    P. Verma, H. F. Schaefer III, K. Patkowski, R. A. King, E. F. Valeev,
    F. A. Evangelista, J. M. Turney, T. D. Crawford, and C. D. Sherrill,
    J. Chem. Theory Comput. 13(7) pp 3185--3197 (2017).
    (doi: 10.1021/acs.jctc.7b00174)

    -----------------------------------------------------------------------


    Psi4 started on: Wednesday, 07 March 2018 07:48AM

    Process ID:  24378
    PSIDATADIR: /theoryfs2/ds/schieber/Gits/mspsi4/objdir3/stage/usr/local/psi4/share/psi4
    Memory:     500.0 MiB
    Threads:    6
    
  ==> Input File <==

--------------------------------------------------------------------------
memory 60 Gb

molecule protein_39 {
0 1
 N   18.626  30.444   6.627
 C   17.853  29.516   5.837
 C   16.945  30.292   4.886
 O   15.843  30.678   5.237
 C   17.047  28.642   6.811
 C   16.316  27.513   6.146
 O   16.236  27.458   4.905
 O   15.762  26.696   6.882
 N   17.407  27.054  -1.437
 C   17.227  26.751  -0.026
 C   18.555  26.446   0.653
 O   19.003  25.309   0.692
 C   16.258  25.572   0.084
 C   15.759  25.336   1.493
 O   16.399  25.780   2.453
 O   14.731  24.675   1.645
 N   19.106  26.199   3.688
 C   18.957  25.372   4.876
 C   18.845  23.903   4.520
 O   18.660  23.054   5.417
 H   18.180  30.990   7.295
 H   18.510  28.835   5.249
 H   16.336  29.276   7.377
 H   17.778  28.186   7.516
 H   15.845  26.702   7.843
 H   17.860  26.421  -2.023
 H   16.724  27.595   0.500
 H   16.724  24.663  -0.337
 H   15.363  25.845  -0.519
 H   16.737  25.171   3.109
 H   18.314  26.771   3.377
 H   18.015  25.631   5.391
 H   19.792  25.567   5.577
 H   19.646  30.419   6.619
 H   17.295  30.415   3.850
 H   16.947  27.858  -1.864
 H   19.060  27.284   1.155
 H   20.034  26.347   3.290
 H   18.824  23.654   3.449
}

set {
basis aug-cc-pvqz
scf_type df
guess sad
DF_SCF_TYPE SYMM_JK
}

energy('HF')
--------------------------------------------------------------------------

  Memory set to  55.879 GiB by Python driver.

*** tstart() called on hex15
*** at Wed Mar  7 07:48:17 2018

   => Loading Basis Set <=

    Name: AUG-CC-PVQZ
    Role: ORBITAL
    Keyword: BASIS
    atoms 1, 9, 17                      entry N          line   359 file /theoryfs2/ds/schieber/Gits/mspsi4/objdir3/stage/usr/local/psi4/share/psi4/basis/aug-cc-pvqz.gbs 
    atoms 2-3, 5-6, 10-11, 13-14, 18-19 entry C          line   299 file /theoryfs2/ds/schieber/Gits/mspsi4/objdir3/stage/usr/local/psi4/share/psi4/basis/aug-cc-pvqz.gbs 
    atoms 4, 7-8, 12, 15-16, 20         entry O          line   419 file /theoryfs2/ds/schieber/Gits/mspsi4/objdir3/stage/usr/local/psi4/share/psi4/basis/aug-cc-pvqz.gbs 
    atoms 21-39                         entry H          line    36 file /theoryfs2/ds/schieber/Gits/mspsi4/objdir3/stage/usr/local/psi4/share/psi4/basis/aug-cc-pvqz.gbs 


         ---------------------------------------------------------
                                   SCF
            by Justin Turney, Rob Parrish, Andy Simmonett
                             and Daniel Smith
                              RHF Reference
                        6 Threads,  57220 MiB Core
         ---------------------------------------------------------

  ==> Geometry <==

    Molecular point group: c1
    Full point group: C1

    Geometry (in Angstrom), charge = 0, multiplicity = 1:

       Center              X                  Y                   Z               Mass       
    ------------   -----------------  -----------------  -----------------  -----------------
           N          1.351848201903     3.618071616974     3.042782948432    14.003074004780
           C          0.578848201903     2.690071616974     2.252782948432    12.000000000000
           C         -0.329151798097     3.466071616974     1.301782948432    12.000000000000
           O         -1.431151798097     3.852071616974     1.652782948432    15.994914619560
           C         -0.227151798097     1.816071616974     3.226782948432    12.000000000000
           C         -0.958151798097     0.687071616974     2.561782948432    12.000000000000
           O         -1.038151798097     0.632071616974     1.320782948432    15.994914619560
           O         -1.512151798097    -0.129928383026     3.297782948432    15.994914619560
           N          0.132848201903     0.228071616974    -5.021217051568    14.003074004780
           C         -0.047151798097    -0.074928383026    -3.610217051568    12.000000000000
           C          1.280848201903    -0.379928383026    -2.931217051568    12.000000000000
           O          1.728848201903    -1.516928383026    -2.892217051568    15.994914619560
           C         -1.016151798097    -1.253928383026    -3.500217051568    12.000000000000
           C         -1.515151798097    -1.489928383026    -2.091217051568    12.000000000000
           O         -0.875151798097    -1.045928383026    -1.131217051568    15.994914619560
           O         -2.543151798097    -2.150928383026    -1.939217051568    15.994914619560
           N          1.831848201903    -0.626928383026     0.103782948432    14.003074004780
           C          1.682848201903    -1.453928383026     1.291782948432    12.000000000000
           C          1.570848201903    -2.922928383026     0.935782948432    12.000000000000
           O          1.385848201903    -3.771928383026     1.832782948432    15.994914619560
           H          0.905848201903     4.164071616974     3.710782948432     1.007825032070
           H          1.235848201903     2.009071616974     1.664782948432     1.007825032070
           H         -0.938151798097     2.450071616974     3.792782948432     1.007825032070
           H          0.503848201903     1.360071616974     3.931782948432     1.007825032070
           H         -1.429151798097    -0.123928383026     4.258782948432     1.007825032070
           H          0.585848201903    -0.404928383026    -5.607217051568     1.007825032070
           H         -0.550151798097     0.769071616974    -3.084217051568     1.007825032070
           H         -0.550151798097    -2.162928383026    -3.921217051568     1.007825032070
           H         -1.911151798097    -0.980928383026    -4.103217051568     1.007825032070
           H         -0.537151798097    -1.654928383026    -0.475217051568     1.007825032070
           H          1.039848201903    -0.054928383026    -0.207217051568     1.007825032070
           H          0.740848201903    -1.194928383026     1.806782948432     1.007825032070
           H          2.517848201903    -1.258928383026     1.992782948432     1.007825032070
           H          2.371848201903     3.593071616974     3.034782948432     1.007825032070
           H          0.020848201903     3.589071616974     0.265782948432     1.007825032070
           H         -0.327151798097     1.032071616974    -5.448217051568     1.007825032070
           H          1.785848201903     0.458071616974    -2.429217051568     1.007825032070
           H          2.759848201903    -0.478928383026    -0.294217051568     1.007825032070
           H          1.549848201903    -3.171928383026    -0.135217051568     1.007825032070

  Running in c1 symmetry.

  Rotational constants: A =      0.01135  B =      0.00596  C =      0.00509 [cm^-1]
  Rotational constants: A =    340.34658  B =    178.57705  C =    152.51078 [MHz]
  Nuclear repulsion = 1638.269612368452044

  Charge       = 0
  Multiplicity = 1
  Electrons    = 156
  Nalpha       = 78
  Nbeta        = 78

  ==> Algorithm <==

  SCF Algorithm Type is DF.
  DIIS enabled.
  MOM disabled.
  Fractional occupation disabled.
  Guess Type is SAD.
  Energy threshold   = 1.00e-06
  Density threshold  = 1.00e-06
  Integral threshold = 0.00e+00

  ==> Primary Basis <==

  Basis Set: AUG-CC-PVQZ
    Blend: AUG-CC-PVQZ
    Number of shells: 666
    Number of basis function: 2474
    Number of Cartesian functions: 3145
    Spherical Harmonics?: true
    Max angular momentum: 4

   => Loading Basis Set <=

    Name: (AUG-CC-PVQZ AUX)
    Role: JKFIT
    Keyword: DF_BASIS_SCF
    atoms 1, 9, 17                      entry N          line   248 file /theoryfs2/ds/schieber/Gits/mspsi4/objdir3/stage/usr/local/psi4/share/psi4/basis/aug-cc-pvqz-jkfit.gbs 
    atoms 2-3, 5-6, 10-11, 13-14, 18-19 entry C          line   178 file /theoryfs2/ds/schieber/Gits/mspsi4/objdir3/stage/usr/local/psi4/share/psi4/basis/aug-cc-pvqz-jkfit.gbs 
    atoms 4, 7-8, 12, 15-16, 20         entry O          line   318 file /theoryfs2/ds/schieber/Gits/mspsi4/objdir3/stage/usr/local/psi4/share/psi4/basis/aug-cc-pvqz-jkfit.gbs 
    atoms 21-39                         entry H          line    70 file /theoryfs2/ds/schieber/Gits/mspsi4/objdir3/stage/usr/local/psi4/share/psi4/basis/aug-cc-pvqz-jkfit.gbs 

  ==> Pre-Iterations <==

   -------------------------------------------------------
    Irrep   Nso     Nmo     Nalpha   Nbeta   Ndocc  Nsocc
   -------------------------------------------------------
     A       2474    2474       0       0       0       0
   -------------------------------------------------------
    Total    2474    2474      78      78      78       0
   -------------------------------------------------------

  ==> Integral Setup <==


    ==> DF_Helper memory announcement <==
        Turning off in-core AOs.  DF_Helper needs at least (185.89GB), but it only got (45GB)

    ==> DF_Helper <==
      nao           = 2474
      naux          = 4284
      Scwarz cutoff = 1.000000E-12
      mem (doubles) = 5625000000
      nthreads      = 6
      Algorithm     = STORE
      AO_core?      = 0
      MO_core?      = 0
      hold metric   = 0
      metric power  = -5.000000E-01
  Fitting condition = 1.000000E-12
  Mask sparsity (%) = (30.016684)


  Minimum eigenvalue in the overlap matrix is 4.0878887296E-07.
  Using Symmetric Orthogonalization.

  SCF Guess: Superposition of Atomic Densities via on-the-fly atomic UHF.

  ==> Iterations <==

                           Total Energy        Delta E     RMS |[F,P]|

   @DF-RHF iter   0: -1084.84671815488900   -1.08485e+03   8.42417e-03 
   @DF-RHF iter   1: -1076.78448289806306    8.06224e+00   1.09503e-03 
   @DF-RHF iter   2: -1077.25652822627239   -4.72045e-01   7.56164e-04 DIIS
   @DF-RHF iter   3: -1077.47051129351803   -2.13983e-01   1.73810e-04 DIIS
   @DF-RHF iter   4: -1077.49610177648833   -2.55905e-02   6.12332e-05 DIIS
   @DF-RHF iter   5: -1077.50056779913348   -4.46602e-03   2.70643e-05 DIIS
   @DF-RHF iter   6: -1077.50189895123799   -1.33115e-03   1.42953e-05 DIIS
   @DF-RHF iter   7: -1077.50239629894531   -4.97348e-04   7.09634e-06 DIIS
   @DF-RHF iter   8: -1077.50252220809307   -1.25909e-04   3.38838e-06 DIIS
   @DF-RHF iter   9: -1077.50255173454434   -2.95265e-05   1.35541e-06 DIIS
   @DF-RHF iter  10: -1077.50255623451949   -4.49998e-06   5.31346e-07 DIIS
   @DF-RHF iter  11: -1077.50255689774258   -6.63223e-07   1.97437e-07 DIIS

  ==> Post-Iterations <==

    Orbital Energies (a.u.)
    -----------------------

    Doubly Occupied:                                                      

       1A    -20.646116     2A    -20.602889     3A    -20.568455  
       4A    -20.562255     5A    -20.559979     6A    -20.541072  
       7A    -20.515619     8A    -15.561484     9A    -15.553787  
      10A    -15.551006    11A    -11.398659    12A    -11.366741  
      13A    -11.345622    14A    -11.340148    15A    -11.337568  
      16A    -11.299127    17A    -11.291575    18A    -11.284241  
      19A    -11.266957    20A    -11.239131    21A     -1.530361  
      22A     -1.500304    23A     -1.398578    24A     -1.394501  
      25A     -1.370436    26A     -1.359949    27A     -1.333697  
      28A     -1.217371    29A     -1.204393    30A     -1.188402  
      31A     -1.058710    32A     -1.045086    33A     -0.967813  
      34A     -0.953021    35A     -0.938884    36A     -0.909511  
      37A     -0.876666    38A     -0.812200    39A     -0.805999  
      40A     -0.797325    41A     -0.751094    42A     -0.734021  
      43A     -0.721823    44A     -0.708853    45A     -0.697457  
      46A     -0.695499    47A     -0.690999    48A     -0.688385  
      49A     -0.668661    50A     -0.664025    51A     -0.662147  
      52A     -0.655352    53A     -0.646774    54A     -0.634249  
      55A     -0.632817    56A     -0.631550    57A     -0.624411  
      58A     -0.593322    59A     -0.580944    60A     -0.576683  
      61A     -0.565805    62A     -0.560461    63A     -0.534918  
      64A     -0.532064    65A     -0.522725    66A     -0.518587  
      67A     -0.508031    68A     -0.491514    69A     -0.477327  
      70A     -0.465380    71A     -0.458351    72A     -0.450091  
      73A     -0.447730    74A     -0.446232    75A     -0.436670  
      76A     -0.389722    77A     -0.385232    78A     -0.379601  

    Virtual:                                                              

      79A      0.008820    80A      0.015236    81A      0.021495  
      82A      0.026537    83A      0.031386    84A      0.034889  
      85A      0.041265    86A      0.042559    87A      0.044645  
      88A      0.050900    89A      0.052335    90A      0.056377  
      91A      0.061668    92A      0.062349    93A      0.065868  
      94A      0.068474    95A      0.071917    96A      0.075531  
      97A      0.080537    98A      0.082287    99A      0.083010  
     100A      0.087805   101A      0.089022   102A      0.093162  
     103A      0.094001   104A      0.094841   105A      0.096681  
     106A      0.102434   107A      0.104012   108A      0.109195  
     109A      0.112202   110A      0.113903   111A      0.115715  
     112A      0.116798   113A      0.117324   114A      0.119715  
     115A      0.122786   116A      0.124362   117A      0.124958  
     118A      0.126609   119A      0.127441   120A      0.130532  
     121A      0.133402   122A      0.136260   123A      0.138266  
     124A      0.139414   125A      0.142327   126A      0.145071  
     127A      0.147694   128A      0.150042   129A      0.153636  
     130A      0.155236   131A      0.158939   132A      0.162272  
     133A      0.163444   134A      0.165422   135A      0.168042  
     136A      0.169639   137A      0.172010   138A      0.175937  
     139A      0.176901   140A      0.177922   141A      0.183065  
     142A      0.186136   143A      0.187831   144A      0.190483  
     145A      0.194912   146A      0.196534   147A      0.198813  
     148A      0.203397   149A      0.204777   150A      0.207290  
     151A      0.209379   152A      0.213708   153A      0.214608  
     154A      0.217206   155A      0.219192   156A      0.222018  
     157A      0.226609   158A      0.229677   159A      0.231801  
     160A      0.233125   161A      0.238040   162A      0.238903  
     163A      0.240297   164A      0.242404   165A      0.248521  
     166A      0.250603   167A      0.252604   168A      0.256220  
     169A      0.256727   170A      0.260607   171A      0.263290  
     172A      0.264228   173A      0.265594   174A      0.268684  
     175A      0.269865   176A      0.270383   177A      0.271727  
     178A      0.275945   179A      0.277139   180A      0.278764  
     181A      0.280447   182A      0.282655   183A      0.284766  
     184A      0.287356   185A      0.291131   186A      0.292969  
     187A      0.293910   188A      0.295952   189A      0.299138  
     190A      0.300070   191A      0.304215   192A      0.305994  
     193A      0.308366   194A      0.311896   195A      0.314631  
     196A      0.316437   197A      0.317460   198A      0.319904  
     199A      0.322617   200A      0.325232   201A      0.326973  
     202A      0.330686   203A      0.335298   204A      0.336729  
     205A      0.338326   206A      0.340968   207A      0.343898  
     208A      0.346056   209A      0.346774   210A      0.351669  
     211A      0.355864   212A      0.357109   213A      0.358522  
     214A      0.361264   215A      0.363113   216A      0.363607  
     217A      0.366069   218A      0.368323   219A      0.370681  
     220A      0.371678   221A      0.375723   222A      0.378545  
     223A      0.380237   224A      0.383442   225A      0.385199  
     226A      0.387702   227A      0.389807   228A      0.391207  
     229A      0.392187   230A      0.393159   231A      0.394812  
     232A      0.400451   233A      0.405331   234A      0.409063  
     235A      0.409581   236A      0.411072   237A      0.413936  
     238A      0.415291   239A      0.418024   240A      0.420991  
     241A      0.421374   242A      0.423093   243A      0.426053  
     244A      0.428966   245A      0.431517   246A      0.434565  
     247A      0.437506   248A      0.439492   249A      0.441817  
     250A      0.443431   251A      0.443800   252A      0.447269  
     253A      0.450160   254A      0.452319   255A      0.453535  
     256A      0.456368   257A      0.457658   258A      0.459082  
     259A      0.461934   260A      0.464574   261A      0.466238  
     262A      0.469898   263A      0.472553   264A      0.474192  
     265A      0.476803   266A      0.477285   267A      0.478053  
     268A      0.480649   269A      0.482982   270A      0.486313  
     271A      0.488482   272A      0.489659   273A      0.490787  
     274A      0.494772   275A      0.495851   276A      0.500422  
     277A      0.502755   278A      0.504133   279A      0.506376  
     280A      0.506524   281A      0.512207   282A      0.517943  
     283A      0.520047   284A      0.522564   285A      0.523438  
     286A      0.524971   287A      0.527208   288A      0.531090  
     289A      0.534267   290A      0.534627   291A      0.536515  
     292A      0.540217   293A      0.542212   294A      0.544706  
     295A      0.549083   296A      0.550418   297A      0.553778  
     298A      0.555327   299A      0.557107   300A      0.560421  
     301A      0.561283   302A      0.565368   303A      0.566354  
     304A      0.571404   305A      0.572134   306A      0.574217  
     307A      0.576944   308A      0.579807   309A      0.580522  
     310A      0.584410   311A      0.588867   312A      0.590265  
     313A      0.591309   314A      0.592579   315A      0.597267  
     316A      0.601184   317A      0.604534   318A      0.607686  
     319A      0.611149   320A      0.611683   321A      0.613570  
     322A      0.615378   323A      0.618609   324A      0.621395  
     325A      0.622478   326A      0.625900   327A      0.628894  
     328A      0.635204   329A      0.636277   330A      0.639831  
     331A      0.640336   332A      0.643581   333A      0.645627  
     334A      0.646716   335A      0.653003   336A      0.656414  
     337A      0.657714   338A      0.659748   339A      0.663186  
     340A      0.665588   341A      0.669050   342A      0.670917  
     343A      0.672980   344A      0.675801   345A      0.679982  
     346A      0.683517   347A      0.684187   348A      0.687876  
     349A      0.690911   350A      0.693026   351A      0.694031  
     352A      0.697921   353A      0.700790   354A      0.702422  
     355A      0.704624   356A      0.708729   357A      0.711920  
     358A      0.716401   359A      0.717005   360A      0.719175  
     361A      0.720850   362A      0.725621   363A      0.728754  
     364A      0.731008   365A      0.733053   366A      0.734807  
     367A      0.737035   368A      0.737273   369A      0.740869  
     370A      0.743699   371A      0.745328   372A      0.746541  
     373A      0.749887   374A      0.753961   375A      0.754602  
     376A      0.757912   377A      0.758436   378A      0.761327  
     379A      0.764744   380A      0.765555   381A      0.768613  
     382A      0.770212   383A      0.773364   384A      0.774226  
     385A      0.779682   386A      0.784207   387A      0.784525  
     388A      0.788137   389A      0.789775   390A      0.791344  
     391A      0.793618   392A      0.794571   393A      0.799441  
     394A      0.800340   395A      0.802478   396A      0.804404  
     397A      0.808059   398A      0.811125   399A      0.816094  
     400A      0.818346   401A      0.821570   402A      0.822389  
     403A      0.823409   404A      0.826112   405A      0.829805  
     406A      0.833975   407A      0.837212   408A      0.839737  
     409A      0.841599   410A      0.844383   411A      0.848528  
     412A      0.850336   413A      0.850775   414A      0.852222  
     415A      0.854940   416A      0.856393   417A      0.860413  
     418A      0.862042   419A      0.864492   420A      0.868326  
     421A      0.869784   422A      0.871524   423A      0.872466  
     424A      0.878535   425A      0.878872   426A      0.879875  
     427A      0.882490   428A      0.888574   429A      0.889863  
     430A      0.892044   431A      0.896735   432A      0.897010  
     433A      0.900278   434A      0.901983   435A      0.902984  
     436A      0.908798   437A      0.910130   438A      0.914779  
     439A      0.917817   440A      0.918500   441A      0.921543  
     442A      0.924586   443A      0.925393   444A      0.927835  
     445A      0.928545   446A      0.929900   447A      0.932741  
     448A      0.938120   449A      0.938839   450A      0.941415  
     451A      0.945697   452A      0.947807   453A      0.948821  
     454A      0.952788   455A      0.955345   456A      0.955908  
     457A      0.959973   458A      0.960996   459A      0.963384  
     460A      0.967712   461A      0.971698   462A      0.975105  
     463A      0.977040   464A      0.979456   465A      0.980022  
     466A      0.986946   467A      0.989302   468A      0.993466  
     469A      0.998106   470A      1.002281   471A      1.003650  
     472A      1.004749   473A      1.006208   474A      1.008472  
     475A      1.013134   476A      1.014618   477A      1.015511  
     478A      1.018695   479A      1.022182   480A      1.022656  
     481A      1.025639   482A      1.027715   483A      1.031283  
     484A      1.033638   485A      1.035118   486A      1.039169  
     487A      1.042309   488A      1.042994   489A      1.046101  
     490A      1.050955   491A      1.053285   492A      1.057217  
     493A      1.059197   494A      1.062398   495A      1.068129  
     496A      1.069538   497A      1.071891   498A      1.072002  
     499A      1.074483   500A      1.080534   501A      1.084757  
     502A      1.087944   503A      1.090448   504A      1.095800  
     505A      1.099303   506A      1.099665   507A      1.101428  
     508A      1.104163   509A      1.106632   510A      1.109478  
     511A      1.111397   512A      1.115462   513A      1.120738  
     514A      1.121880   515A      1.124671   516A      1.126718  
     517A      1.131673   518A      1.135607   519A      1.135915  
     520A      1.139557   521A      1.141575   522A      1.142989  
     523A      1.146390   524A      1.150121   525A      1.153964  
     526A      1.157042   527A      1.159483   528A      1.165931  
     529A      1.167296   530A      1.170350   531A      1.173781  
     532A      1.174352   533A      1.178758   534A      1.183331  
     535A      1.186153   536A      1.187360   537A      1.188585  
     538A      1.193101   539A      1.196599   540A      1.197283  
     541A      1.200729   542A      1.202618   543A      1.204900  
     544A      1.205445   545A      1.209592   546A      1.212322  
     547A      1.218838   548A      1.220563   549A      1.224679  
     550A      1.226989   551A      1.228418   552A      1.232667  
     553A      1.235257   554A      1.238316   555A      1.241005  
     556A      1.242040   557A      1.243012   558A      1.247804  
     559A      1.251449   560A      1.251787   561A      1.259855  
     562A      1.261768   563A      1.262429   564A      1.268341  
     565A      1.272107   566A      1.273467   567A      1.277300  
     568A      1.279739   569A      1.283511   570A      1.287349  
     571A      1.288702   572A      1.295093   573A      1.297015  
     574A      1.298594   575A      1.299914   576A      1.305359  
     577A      1.309571   578A      1.310408   579A      1.313116  
     580A      1.316942   581A      1.320600   582A      1.322356  
     583A      1.325942   584A      1.327997   585A      1.330213  
     586A      1.335238   587A      1.341518   588A      1.344340  
     589A      1.345210   590A      1.346220   591A      1.349809  
     592A      1.355656   593A      1.355697   594A      1.357149  
     595A      1.359693   596A      1.365287   597A      1.368216  
     598A      1.372997   599A      1.376811   600A      1.378157  
     601A      1.380155   602A      1.385560   603A      1.388307  
     604A      1.392080   605A      1.394894   606A      1.399124  
     607A      1.404087   608A      1.408644   609A      1.409663  
     610A      1.412319   611A      1.413050   612A      1.414477  
     613A      1.420852   614A      1.421881   615A      1.427709  
     616A      1.429675   617A      1.432261   618A      1.437835  
     619A      1.440528   620A      1.442393   621A      1.444740  
     622A      1.449625   623A      1.453054   624A      1.454188  
     625A      1.459428   626A      1.465834   627A      1.467752  
     628A      1.470398   629A      1.479080   630A      1.482455  
     631A      1.484601   632A      1.488728   633A      1.489743  
     634A      1.496866   635A      1.501442   636A      1.502743  
     637A      1.509105   638A      1.509653   639A      1.515945  
     640A      1.518821   641A      1.519331   642A      1.524606  
     643A      1.527051   644A      1.529536   645A      1.533961  
     646A      1.536294   647A      1.537229   648A      1.540481  
     649A      1.548431   650A      1.550248   651A      1.554091  
     652A      1.555998   653A      1.557155   654A      1.561822  
     655A      1.564180   656A      1.567960   657A      1.570085  
     658A      1.573325   659A      1.574648   660A      1.578333  
     661A      1.583343   662A      1.584994   663A      1.589182  
     664A      1.595680   665A      1.600015   666A      1.604537  
     667A      1.607102   668A      1.610028   669A      1.611084  
     670A      1.612976   671A      1.618376   672A      1.620847  
     673A      1.622504   674A      1.625987   675A      1.632036  
     676A      1.634856   677A      1.637557   678A      1.641391  
     679A      1.641868   680A      1.646920   681A      1.650901  
     682A      1.654508   683A      1.657338   684A      1.662937  
     685A      1.666688   686A      1.673080   687A      1.675847  
     688A      1.677493   689A      1.679538   690A      1.683585  
     691A      1.685675   692A      1.689724   693A      1.692391  
     694A      1.697610   695A      1.701714   696A      1.707141  
     697A      1.707567   698A      1.711413   699A      1.714873  
     700A      1.718448   701A      1.721754   702A      1.724329  
     703A      1.727225   704A      1.729373   705A      1.734093  
     706A      1.736319   707A      1.741544   708A      1.744850  
     709A      1.746866   710A      1.747757   711A      1.752109  
     712A      1.756613   713A      1.760737   714A      1.767528  
     715A      1.768759   716A      1.772051   717A      1.773717  
     718A      1.778674   719A      1.780175   720A      1.788706  
     721A      1.791717   722A      1.793826   723A      1.794117  
     724A      1.800270   725A      1.801998   726A      1.804900  
     727A      1.808519   728A      1.810541   729A      1.818550  
     730A      1.820302   731A      1.824217   732A      1.826596  
     733A      1.830177   734A      1.833038   735A      1.834267  
     736A      1.840926   737A      1.841948   738A      1.843565  
     739A      1.846971   740A      1.850955   741A      1.854217  
     742A      1.857096   743A      1.858853   744A      1.863156  
     745A      1.866913   746A      1.872667   747A      1.875394  
     748A      1.876656   749A      1.879470   750A      1.881195  
     751A      1.883793   752A      1.891287   753A      1.892408  
     754A      1.896341   755A      1.897211   756A      1.900912  
     757A      1.902390   758A      1.906984   759A      1.909955  
     760A      1.912310   761A      1.913696   762A      1.915940  
     763A      1.924334   764A      1.925568   765A      1.926808  
     766A      1.928885   767A      1.932336   768A      1.936462  
     769A      1.938312   770A      1.944112   771A      1.947422  
     772A      1.949608   773A      1.951585   774A      1.953942  
     775A      1.957309   776A      1.962644   777A      1.965606  
     778A      1.970064   779A      1.972993   780A      1.975356  
     781A      1.976665   782A      1.979809   783A      1.984601  
     784A      1.987368   785A      1.990721   786A      1.994301  
     787A      1.996712   788A      1.997729   789A      2.002030  
     790A      2.004386   791A      2.007214   792A      2.012016  
     793A      2.016141   794A      2.018551   795A      2.025807  
     796A      2.026904   797A      2.032015   798A      2.032517  
     799A      2.034972   800A      2.038910   801A      2.041833  
     802A      2.047109   803A      2.048939   804A      2.052285  
     805A      2.056256   806A      2.061137   807A      2.063752  
     808A      2.064837   809A      2.068745   810A      2.070333  
     811A      2.073415   812A      2.077384   813A      2.082711  
     814A      2.085833   815A      2.087847   816A      2.089344  
     817A      2.091344   818A      2.095446   819A      2.098002  
     820A      2.103208   821A      2.104609   822A      2.106982  
     823A      2.112602   824A      2.114034   825A      2.119186  
     826A      2.121504   827A      2.123609   828A      2.126130  
     829A      2.128860   830A      2.130764   831A      2.133954  
     832A      2.137593   833A      2.139021   834A      2.141988  
     835A      2.143571   836A      2.149767   837A      2.151443  
     838A      2.156192   839A      2.159547   840A      2.163125  
     841A      2.165346   842A      2.169696   843A      2.175834  
     844A      2.179177   845A      2.180366   846A      2.183687  
     847A      2.185666   848A      2.187415   849A      2.190317  
     850A      2.193518   851A      2.198165   852A      2.199044  
     853A      2.200898   854A      2.203430   855A      2.205428  
     856A      2.209158   857A      2.214501   858A      2.216117  
     859A      2.217570   860A      2.223602   861A      2.226159  
     862A      2.228494   863A      2.231271   864A      2.233644  
     865A      2.236426   866A      2.239047   867A      2.240934  
     868A      2.244179   869A      2.245026   870A      2.248808  
     871A      2.251694   872A      2.252804   873A      2.257716  
     874A      2.259612   875A      2.260502   876A      2.265960  
     877A      2.268015   878A      2.270522   879A      2.276521  
     880A      2.277640   881A      2.280909   882A      2.282568  
     883A      2.287985   884A      2.289563   885A      2.294274  
     886A      2.296533   887A      2.300913   888A      2.303933  
     889A      2.306599   890A      2.308609   891A      2.312150  
     892A      2.316516   893A      2.320228   894A      2.322776  
     895A      2.327118   896A      2.329022   897A      2.332420  
     898A      2.333939   899A      2.336001   900A      2.338052  
     901A      2.340766   902A      2.344744   903A      2.348089  
     904A      2.348243   905A      2.351447   906A      2.354875  
     907A      2.359218   908A      2.360924   909A      2.367224  
     910A      2.368135   911A      2.371212   912A      2.372679  
     913A      2.376447   914A      2.380186   915A      2.385019  
     916A      2.387124   917A      2.389735   918A      2.393323  
     919A      2.401392   920A      2.402923   921A      2.405227  
     922A      2.408461   923A      2.411245   924A      2.414487  
     925A      2.416612   926A      2.423122   927A      2.426167  
     928A      2.429102   929A      2.433788   930A      2.435352  
     931A      2.441440   932A      2.442220   933A      2.446182  
     934A      2.449367   935A      2.454905   936A      2.455853  
     937A      2.458129   938A      2.462694   939A      2.465933  
     940A      2.468547   941A      2.468913   942A      2.474343  
     943A      2.478840   944A      2.482818   945A      2.485149  
     946A      2.485775   947A      2.492465   948A      2.494966  
     949A      2.498428   950A      2.503338   951A      2.505477  
     952A      2.507637   953A      2.509961   954A      2.514906  
     955A      2.515024   956A      2.516935   957A      2.521446  
     958A      2.524193   959A      2.527971   960A      2.530339  
     961A      2.534103   962A      2.537721   963A      2.538870  
     964A      2.550147   965A      2.551138   966A      2.552908  
     967A      2.558665   968A      2.562527   969A      2.564907  
     970A      2.569583   971A      2.572172   972A      2.578768  
     973A      2.580518   974A      2.582344   975A      2.586291  
     976A      2.588416   977A      2.594512   978A      2.599457  
     979A      2.602644   980A      2.604254   981A      2.608639  
     982A      2.614340   983A      2.619427   984A      2.621347  
     985A      2.622867   986A      2.626184   987A      2.632795  
     988A      2.637757   989A      2.639704   990A      2.642199  
     991A      2.647296   992A      2.649011   993A      2.653241  
     994A      2.661713   995A      2.665443   996A      2.668743  
     997A      2.670161   998A      2.672490   999A      2.675159  
    1000A      2.680553  1001A      2.683078  1002A      2.686005  
    1003A      2.686491  1004A      2.695194  1005A      2.699627  
    1006A      2.703683  1007A      2.705625  1008A      2.710465  
    1009A      2.715723  1010A      2.716707  1011A      2.723170  
    1012A      2.730173  1013A      2.735111  1014A      2.739189  
    1015A      2.742485  1016A      2.745694  1017A      2.752164  
    1018A      2.755684  1019A      2.757093  1020A      2.760346  
    1021A      2.761398  1022A      2.765981  1023A      2.776331  
    1024A      2.777816  1025A      2.783632  1026A      2.789846  
    1027A      2.795980  1028A      2.798952  1029A      2.801678  
    1030A      2.806724  1031A      2.809393  1032A      2.810284  
    1033A      2.814463  1034A      2.818089  1035A      2.824433  
    1036A      2.829078  1037A      2.830815  1038A      2.833461  
    1039A      2.842686  1040A      2.844958  1041A      2.847777  
    1042A      2.854080  1043A      2.859944  1044A      2.864143  
    1045A      2.871011  1046A      2.875461  1047A      2.878062  
    1048A      2.882668  1049A      2.882888  1050A      2.887386  
    1051A      2.890244  1052A      2.896645  1053A      2.899339  
    1054A      2.901042  1055A      2.907602  1056A      2.908319  
    1057A      2.911530  1058A      2.916394  1059A      2.924367  
    1060A      2.929782  1061A      2.933578  1062A      2.935012  
    1063A      2.942870  1064A      2.943907  1065A      2.947087  
    1066A      2.952910  1067A      2.955446  1068A      2.958350  
    1069A      2.959525  1070A      2.964653  1071A      2.969216  
    1072A      2.969922  1073A      2.981893  1074A      2.984752  
    1075A      2.984872  1076A      2.987524  1077A      2.993092  
    1078A      2.996826  1079A      3.005177  1080A      3.010923  
    1081A      3.013884  1082A      3.016688  1083A      3.024032  
    1084A      3.026344  1085A      3.033742  1086A      3.035009  
    1087A      3.041972  1088A      3.045070  1089A      3.045786  
    1090A      3.046661  1091A      3.050717  1092A      3.052191  
    1093A      3.060486  1094A      3.061670  1095A      3.065082  
    1096A      3.070164  1097A      3.074393  1098A      3.076584  
    1099A      3.082154  1100A      3.086122  1101A      3.086621  
    1102A      3.091129  1103A      3.093312  1104A      3.096910  
    1105A      3.104377  1106A      3.111213  1107A      3.114071  
    1108A      3.119413  1109A      3.120643  1110A      3.126825  
    1111A      3.128264  1112A      3.134111  1113A      3.137147  
    1114A      3.139938  1115A      3.146260  1116A      3.147983  
    1117A      3.149970  1118A      3.156253  1119A      3.161057  
    1120A      3.166433  1121A      3.169843  1122A      3.172263  
    1123A      3.175167  1124A      3.178334  1125A      3.181093  
    1126A      3.190771  1127A      3.193760  1128A      3.196779  
    1129A      3.201800  1130A      3.206378  1131A      3.210632  
    1132A      3.211991  1133A      3.214202  1134A      3.226674  
    1135A      3.230492  1136A      3.235391  1137A      3.236968  
    1138A      3.244335  1139A      3.247491  1140A      3.250506  
    1141A      3.259076  1142A      3.259637  1143A      3.265320  
    1144A      3.265885  1145A      3.271198  1146A      3.275336  
    1147A      3.278295  1148A      3.287615  1149A      3.289927  
    1150A      3.293076  1151A      3.301691  1152A      3.306963  
    1153A      3.308843  1154A      3.311317  1155A      3.316139  
    1156A      3.318627  1157A      3.326381  1158A      3.330489  
    1159A      3.333689  1160A      3.336818  1161A      3.342927  
    1162A      3.347868  1163A      3.350895  1164A      3.356950  
    1165A      3.359723  1166A      3.362575  1167A      3.364632  
    1168A      3.368258  1169A      3.370062  1170A      3.378917  
    1171A      3.381866  1172A      3.393014  1173A      3.393862  
    1174A      3.398845  1175A      3.402249  1176A      3.408651  
    1177A      3.413532  1178A      3.418839  1179A      3.420697  
    1180A      3.423630  1181A      3.428097  1182A      3.429741  
    1183A      3.439356  1184A      3.442492  1185A      3.448699  
    1186A      3.452208  1187A      3.458983  1188A      3.463297  
    1189A      3.465152  1190A      3.467697  1191A      3.474691  
    1192A      3.481431  1193A      3.484537  1194A      3.489769  
    1195A      3.492012  1196A      3.497013  1197A      3.501684  
    1198A      3.506303  1199A      3.510286  1200A      3.512860  
    1201A      3.516005  1202A      3.520730  1203A      3.525669  
    1204A      3.530943  1205A      3.534869  1206A      3.539204  
    1207A      3.544943  1208A      3.549276  1209A      3.552952  
    1210A      3.562199  1211A      3.574543  1212A      3.575554  
    1213A      3.577391  1214A      3.583956  1215A      3.587468  
    1216A      3.594691  1217A      3.599795  1218A      3.607191  
    1219A      3.608011  1220A      3.614236  1221A      3.619737  
    1222A      3.621310  1223A      3.622134  1224A      3.624997  
    1225A      3.634981  1226A      3.636397  1227A      3.645479  
    1228A      3.650156  1229A      3.658199  1230A      3.661169  
    1231A      3.666671  1232A      3.675776  1233A      3.677290  
    1234A      3.683135  1235A      3.690577  1236A      3.694351  
    1237A      3.699868  1238A      3.702639  1239A      3.708571  
    1240A      3.714245  1241A      3.715173  1242A      3.720262  
    1243A      3.724394  1244A      3.728715  1245A      3.732131  
    1246A      3.736542  1247A      3.740833  1248A      3.744712  
    1249A      3.748771  1250A      3.750236  1251A      3.759453  
    1252A      3.763483  1253A      3.768117  1254A      3.775701  
    1255A      3.781304  1256A      3.790563  1257A      3.796240  
    1258A      3.799868  1259A      3.805927  1260A      3.808985  
    1261A      3.816120  1262A      3.819985  1263A      3.822266  
    1264A      3.829756  1265A      3.833229  1266A      3.837906  
    1267A      3.852349  1268A      3.858865  1269A      3.862607  
    1270A      3.865832  1271A      3.869674  1272A      3.879850  
    1273A      3.884198  1274A      3.888589  1275A      3.893155  
    1276A      3.901156  1277A      3.905418  1278A      3.908686  
    1279A      3.910211  1280A      3.912515  1281A      3.920851  
    1282A      3.923321  1283A      3.927910  1284A      3.934445  
    1285A      3.939704  1286A      3.942585  1287A      3.946784  
    1288A      3.951004  1289A      3.954772  1290A      3.960517  
    1291A      3.966875  1292A      3.978041  1293A      3.979271  
    1294A      3.983938  1295A      3.987784  1296A      3.993137  
    1297A      3.996378  1298A      4.002000  1299A      4.009323  
    1300A      4.011249  1301A      4.015910  1302A      4.019922  
    1303A      4.027524  1304A      4.031101  1305A      4.033829  
    1306A      4.038044  1307A      4.044327  1308A      4.046093  
    1309A      4.047776  1310A      4.052155  1311A      4.056205  
    1312A      4.060243  1313A      4.068517  1314A      4.071532  
    1315A      4.078612  1316A      4.083973  1317A      4.089012  
    1318A      4.094372  1319A      4.095785  1320A      4.100172  
    1321A      4.106489  1322A      4.112028  1323A      4.113036  
    1324A      4.122632  1325A      4.126572  1326A      4.128233  
    1327A      4.134370  1328A      4.135752  1329A      4.140488  
    1330A      4.148343  1331A      4.151135  1332A      4.153276  
    1333A      4.158739  1334A      4.164539  1335A      4.171713  
    1336A      4.183136  1337A      4.187037  1338A      4.188577  
    1339A      4.195182  1340A      4.200596  1341A      4.201482  
    1342A      4.202924  1343A      4.209950  1344A      4.215933  
    1345A      4.216725  1346A      4.225905  1347A      4.229309  
    1348A      4.235825  1349A      4.238201  1350A      4.243210  
    1351A      4.248807  1352A      4.253065  1353A      4.258768  
    1354A      4.265497  1355A      4.267618  1356A      4.271966  
    1357A      4.274777  1358A      4.283482  1359A      4.286351  
    1360A      4.291717  1361A      4.297068  1362A      4.304871  
    1363A      4.307285  1364A      4.308762  1365A      4.313298  
    1366A      4.317121  1367A      4.318389  1368A      4.325899  
    1369A      4.330025  1370A      4.332746  1371A      4.342639  
    1372A      4.350537  1373A      4.353616  1374A      4.360780  
    1375A      4.362797  1376A      4.368020  1377A      4.372543  
    1378A      4.377926  1379A      4.385147  1380A      4.392710  
    1381A      4.400850  1382A      4.404687  1383A      4.409949  
    1384A      4.411106  1385A      4.417945  1386A      4.419608  
    1387A      4.428211  1388A      4.432373  1389A      4.440198  
    1390A      4.443888  1391A      4.451788  1392A      4.458019  
    1393A      4.459112  1394A      4.462566  1395A      4.466004  
    1396A      4.470373  1397A      4.475255  1398A      4.475839  
    1399A      4.482616  1400A      4.485395  1401A      4.491208  
    1402A      4.492714  1403A      4.501701  1404A      4.507169  
    1405A      4.509704  1406A      4.513551  1407A      4.520629  
    1408A      4.525917  1409A      4.530322  1410A      4.533917  
    1411A      4.539271  1412A      4.544084  1413A      4.549172  
    1414A      4.552822  1415A      4.557311  1416A      4.558969  
    1417A      4.566456  1418A      4.568243  1419A      4.574541  
    1420A      4.579010  1421A      4.580853  1422A      4.588111  
    1423A      4.589618  1424A      4.595782  1425A      4.600833  
    1426A      4.603899  1427A      4.605714  1428A      4.611606  
    1429A      4.614422  1430A      4.620163  1431A      4.625117  
    1432A      4.628391  1433A      4.633459  1434A      4.634700  
    1435A      4.641774  1436A      4.644354  1437A      4.646875  
    1438A      4.651680  1439A      4.652825  1440A      4.657749  
    1441A      4.664655  1442A      4.666193  1443A      4.671555  
    1444A      4.677202  1445A      4.684251  1446A      4.685552  
    1447A      4.691394  1448A      4.695675  1449A      4.701726  
    1450A      4.703701  1451A      4.709735  1452A      4.711681  
    1453A      4.712918  1454A      4.720617  1455A      4.727646  
    1456A      4.729919  1457A      4.734583  1458A      4.738670  
    1459A      4.744407  1460A      4.747897  1461A      4.750861  
    1462A      4.757587  1463A      4.762472  1464A      4.766373  
    1465A      4.769685  1466A      4.773884  1467A      4.778256  
    1468A      4.779984  1469A      4.786574  1470A      4.790054  
    1471A      4.794421  1472A      4.797579  1473A      4.804675  
    1474A      4.806262  1475A      4.813805  1476A      4.821052  
    1477A      4.822266  1478A      4.824434  1479A      4.831304  
    1480A      4.837483  1481A      4.846751  1482A      4.849054  
    1483A      4.855737  1484A      4.862460  1485A      4.867383  
    1486A      4.869760  1487A      4.877295  1488A      4.884404  
    1489A      4.890751  1490A      4.894805  1491A      4.897820  
    1492A      4.902141  1493A      4.909499  1494A      4.911955  
    1495A      4.918078  1496A      4.922340  1497A      4.926382  
    1498A      4.930169  1499A      4.935350  1500A      4.942004  
    1501A      4.945690  1502A      4.957854  1503A      4.958745  
    1504A      4.961109  1505A      4.973578  1506A      4.976934  
    1507A      4.984192  1508A      4.988351  1509A      4.993023  
    1510A      4.998431  1511A      5.000246  1512A      5.006102  
    1513A      5.010890  1514A      5.014980  1515A      5.021284  
    1516A      5.031289  1517A      5.041959  1518A      5.043626  
    1519A      5.045390  1520A      5.049514  1521A      5.055043  
    1522A      5.060217  1523A      5.063507  1524A      5.071584  
    1525A      5.082457  1526A      5.098010  1527A      5.100626  
    1528A      5.104193  1529A      5.109446  1530A      5.114477  
    1531A      5.119577  1532A      5.134126  1533A      5.137287  
    1534A      5.143535  1535A      5.147996  1536A      5.159950  
    1537A      5.164058  1538A      5.169448  1539A      5.174701  
    1540A      5.183932  1541A      5.187466  1542A      5.192982  
    1543A      5.196267  1544A      5.202456  1545A      5.212516  
    1546A      5.215317  1547A      5.226826  1548A      5.235316  
    1549A      5.236454  1550A      5.245952  1551A      5.248334  
    1552A      5.257125  1553A      5.265051  1554A      5.271419  
    1555A      5.275442  1556A      5.282165  1557A      5.287198  
    1558A      5.292176  1559A      5.294050  1560A      5.302321  
    1561A      5.304537  1562A      5.317141  1563A      5.326731  
    1564A      5.335401  1565A      5.338239  1566A      5.341577  
    1567A      5.361089  1568A      5.371935  1569A      5.386377  
    1570A      5.392867  1571A      5.398954  1572A      5.405887  
    1573A      5.413800  1574A      5.424790  1575A      5.434541  
    1576A      5.437027  1577A      5.440716  1578A      5.448335  
    1579A      5.455794  1580A      5.460392  1581A      5.487318  
    1582A      5.496785  1583A      5.501074  1584A      5.506540  
    1585A      5.514296  1586A      5.520020  1587A      5.530885  
    1588A      5.533636  1589A      5.547815  1590A      5.560078  
    1591A      5.570837  1592A      5.576119  1593A      5.586727  
    1594A      5.594920  1595A      5.600730  1596A      5.608457  
    1597A      5.610168  1598A      5.621150  1599A      5.629315  
    1600A      5.635594  1601A      5.645862  1602A      5.651013  
    1603A      5.665554  1604A      5.670750  1605A      5.682329  
    1606A      5.694008  1607A      5.698429  1608A      5.713114  
    1609A      5.722740  1610A      5.730055  1611A      5.737940  
    1612A      5.749114  1613A      5.754042  1614A      5.757637  
    1615A      5.759212  1616A      5.767387  1617A      5.770799  
    1618A      5.780105  1619A      5.792122  1620A      5.797018  
    1621A      5.818130  1622A      5.823136  1623A      5.826480  
    1624A      5.831810  1625A      5.838449  1626A      5.851517  
    1627A      5.861479  1628A      5.870346  1629A      5.881189  
    1630A      5.892443  1631A      5.914554  1632A      5.922067  
    1633A      5.928974  1634A      5.943950  1635A      5.962415  
    1636A      5.965858  1637A      5.982071  1638A      5.983957  
    1639A      5.991962  1640A      5.998789  1641A      6.007494  
    1642A      6.038499  1643A      6.042370  1644A      6.059169  
    1645A      6.065006  1646A      6.075512  1647A      6.082235  
    1648A      6.095838  1649A      6.116518  1650A      6.130375  
    1651A      6.142058  1652A      6.172497  1653A      6.189777  
    1654A      6.209739  1655A      6.218248  1656A      6.223001  
    1657A      6.253594  1658A      6.283970  1659A      6.289933  
    1660A      6.314025  1661A      6.321493  1662A      6.325960  
    1663A      6.336463  1664A      6.348908  1665A      6.358624  
    1666A      6.375022  1667A      6.375822  1668A      6.385244  
    1669A      6.403738  1670A      6.415004  1671A      6.422515  
    1672A      6.427517  1673A      6.441190  1674A      6.452196  
    1675A      6.461043  1676A      6.468257  1677A      6.470805  
    1678A      6.489394  1679A      6.499349  1680A      6.500881  
    1681A      6.520921  1682A      6.537637  1683A      6.549583  
    1684A      6.559654  1685A      6.560373  1686A      6.571097  
    1687A      6.585114  1688A      6.599010  1689A      6.607066  
    1690A      6.617285  1691A      6.621693  1692A      6.633376  
    1693A      6.650840  1694A      6.657707  1695A      6.663462  
    1696A      6.669721  1697A      6.681070  1698A      6.682221  
    1699A      6.690205  1700A      6.695896  1701A      6.699136  
    1702A      6.716587  1703A      6.721548  1704A      6.736855  
    1705A      6.753630  1706A      6.757422  1707A      6.769880  
    1708A      6.773403  1709A      6.787115  1710A      6.792531  
    1711A      6.797920  1712A      6.810343  1713A      6.823364  
    1714A      6.829182  1715A      6.837843  1716A      6.841172  
    1717A      6.849290  1718A      6.860591  1719A      6.867745  
    1720A      6.879342  1721A      6.880247  1722A      6.887339  
    1723A      6.892360  1724A      6.893985  1725A      6.906244  
    1726A      6.909534  1727A      6.915510  1728A      6.925272  
    1729A      6.933549  1730A      6.936549  1731A      6.944235  
    1732A      6.951680  1733A      6.955615  1734A      6.964995  
    1735A      6.967836  1736A      6.971276  1737A      6.985442  
    1738A      6.987874  1739A      6.989916  1740A      6.997057  
    1741A      7.004292  1742A      7.013200  1743A      7.018319  
    1744A      7.022351  1745A      7.028549  1746A      7.034748  
    1747A      7.046364  1748A      7.049955  1749A      7.055653  
    1750A      7.062122  1751A      7.063371  1752A      7.073356  
    1753A      7.080221  1754A      7.082072  1755A      7.090292  
    1756A      7.092652  1757A      7.093345  1758A      7.099202  
    1759A      7.107462  1760A      7.112391  1761A      7.125157  
    1762A      7.133278  1763A      7.136442  1764A      7.140957  
    1765A      7.150465  1766A      7.154015  1767A      7.162760  
    1768A      7.168372  1769A      7.176956  1770A      7.186431  
    1771A      7.189061  1772A      7.192575  1773A      7.200264  
    1774A      7.204508  1775A      7.208649  1776A      7.212119  
    1777A      7.216793  1778A      7.222192  1779A      7.230801  
    1780A      7.232672  1781A      7.243525  1782A      7.254071  
    1783A      7.257484  1784A      7.264414  1785A      7.266912  
    1786A      7.273379  1787A      7.279970  1788A      7.281252  
    1789A      7.290630  1790A      7.295522  1791A      7.301356  
    1792A      7.306719  1793A      7.314803  1794A      7.321349  
    1795A      7.326573  1796A      7.328901  1797A      7.339364  
    1798A      7.345020  1799A      7.350591  1800A      7.351516  
    1801A      7.358951  1802A      7.364663  1803A      7.374389  
    1804A      7.378387  1805A      7.381988  1806A      7.393371  
    1807A      7.394996  1808A      7.408985  1809A      7.410452  
    1810A      7.415229  1811A      7.417900  1812A      7.432786  
    1813A      7.443679  1814A      7.456147  1815A      7.460313  
    1816A      7.467141  1817A      7.473907  1818A      7.476777  
    1819A      7.488130  1820A      7.497206  1821A      7.509276  
    1822A      7.513280  1823A      7.523646  1824A      7.532562  
    1825A      7.547366  1826A      7.550884  1827A      7.568529  
    1828A      7.575488  1829A      7.576874  1830A      7.584190  
    1831A      7.591385  1832A      7.594189  1833A      7.602464  
    1834A      7.607935  1835A      7.617892  1836A      7.624942  
    1837A      7.630725  1838A      7.636061  1839A      7.649437  
    1840A      7.656435  1841A      7.657597  1842A      7.664471  
    1843A      7.668370  1844A      7.681945  1845A      7.692084  
    1846A      7.697346  1847A      7.703827  1848A      7.715051  
    1849A      7.729328  1850A      7.730833  1851A      7.743650  
    1852A      7.748241  1853A      7.756198  1854A      7.761009  
    1855A      7.772535  1856A      7.779602  1857A      7.783028  
    1858A      7.794875  1859A      7.798046  1860A      7.807676  
    1861A      7.812559  1862A      7.818805  1863A      7.827730  
    1864A      7.834684  1865A      7.840750  1866A      7.844543  
    1867A      7.854310  1868A      7.859418  1869A      7.867418  
    1870A      7.876896  1871A      7.877479  1872A      7.881824  
    1873A      7.894334  1874A      7.898714  1875A      7.908351  
    1876A      7.914706  1877A      7.919188  1878A      7.926329  
    1879A      7.941049  1880A      7.948349  1881A      7.952223  
    1882A      7.963651  1883A      7.979848  1884A      7.987096  
    1885A      7.991080  1886A      8.006463  1887A      8.010550  
    1888A      8.018807  1889A      8.032049  1890A      8.039033  
    1891A      8.046793  1892A      8.052348  1893A      8.064581  
    1894A      8.066901  1895A      8.072088  1896A      8.076311  
    1897A      8.085868  1898A      8.092708  1899A      8.110761  
    1900A      8.123851  1901A      8.129256  1902A      8.146166  
    1903A      8.147421  1904A      8.156131  1905A      8.159953  
    1906A      8.166768  1907A      8.176996  1908A      8.188072  
    1909A      8.195716  1910A      8.202936  1911A      8.212014  
    1912A      8.218304  1913A      8.223178  1914A      8.230212  
    1915A      8.239725  1916A      8.248712  1917A      8.255868  
    1918A      8.261709  1919A      8.270728  1920A      8.273829  
    1921A      8.277954  1922A      8.282978  1923A      8.291745  
    1924A      8.308773  1925A      8.311204  1926A      8.312904  
    1927A      8.314181  1928A      8.326619  1929A      8.334189  
    1930A      8.340474  1931A      8.351352  1932A      8.361400  
    1933A      8.369286  1934A      8.376370  1935A      8.382209  
    1936A      8.396007  1937A      8.410745  1938A      8.412828  
    1939A      8.424091  1940A      8.441408  1941A      8.450652  
    1942A      8.458672  1943A      8.469583  1944A      8.480573  
    1945A      8.484317  1946A      8.487587  1947A      8.497950  
    1948A      8.501541  1949A      8.518033  1950A      8.523690  
    1951A      8.532268  1952A      8.533155  1953A      8.553563  
    1954A      8.554642  1955A      8.574835  1956A      8.588108  
    1957A      8.593648  1958A      8.600917  1959A      8.603791  
    1960A      8.608828  1961A      8.614332  1962A      8.624283  
    1963A      8.633485  1964A      8.641736  1965A      8.655465  
    1966A      8.656919  1967A      8.667179  1968A      8.674708  
    1969A      8.677806  1970A      8.688183  1971A      8.692474  
    1972A      8.700037  1973A      8.706200  1974A      8.710350  
    1975A      8.716929  1976A      8.720160  1977A      8.729962  
    1978A      8.734856  1979A      8.736694  1980A      8.744007  
    1981A      8.753965  1982A      8.763622  1983A      8.769074  
    1984A      8.780075  1985A      8.784904  1986A      8.792736  
    1987A      8.803249  1988A      8.807779  1989A      8.812880  
    1990A      8.818397  1991A      8.827252  1992A      8.829029  
    1993A      8.831230  1994A      8.835225  1995A      8.852350  
    1996A      8.856537  1997A      8.862189  1998A      8.875254  
    1999A      8.884234  2000A      8.893205  2001A      8.900571  
    2002A      8.910282  2003A      8.915942  2004A      8.922350  
    2005A      8.928996  2006A      8.941696  2007A      8.944257  
    2008A      8.958724  2009A      8.974368  2010A      8.976553  
    2011A      8.985223  2012A      8.992899  2013A      8.994699  
    2014A      9.002331  2015A      9.006538  2016A      9.011532  
    2017A      9.016995  2018A      9.025894  2019A      9.026409  
    2020A      9.045387  2021A      9.051914  2022A      9.063064  
    2023A      9.072187  2024A      9.077610  2025A      9.084346  
    2026A      9.087313  2027A      9.101601  2028A      9.114193  
    2029A      9.122796  2030A      9.130273  2031A      9.139165  
    2032A      9.144249  2033A      9.170917  2034A      9.179946  
    2035A      9.188917  2036A      9.197712  2037A      9.204093  
    2038A      9.206965  2039A      9.212733  2040A      9.221831  
    2041A      9.236213  2042A      9.241169  2043A      9.249610  
    2044A      9.256051  2045A      9.276469  2046A      9.282724  
    2047A      9.288510  2048A      9.300130  2049A      9.311946  
    2050A      9.313596  2051A      9.322369  2052A      9.334475  
    2053A      9.339076  2054A      9.361705  2055A      9.377570  
    2056A      9.382487  2057A      9.398202  2058A      9.402332  
    2059A      9.404982  2060A      9.409475  2061A      9.417078  
    2062A      9.424560  2063A      9.425859  2064A      9.433966  
    2065A      9.443014  2066A      9.459280  2067A      9.464278  
    2068A      9.472043  2069A      9.480546  2070A      9.490288  
    2071A      9.493663  2072A      9.502690  2073A      9.506930  
    2074A      9.521983  2075A      9.535533  2076A      9.539486  
    2077A      9.549937  2078A      9.551898  2079A      9.553965  
    2080A      9.572872  2081A      9.590281  2082A      9.592868  
    2083A      9.602524  2084A      9.607160  2085A      9.614317  
    2086A      9.621339  2087A      9.635504  2088A      9.644803  
    2089A      9.654589  2090A      9.663189  2091A      9.669250  
    2092A      9.677188  2093A      9.692292  2094A      9.693790  
    2095A      9.705083  2096A      9.718857  2097A      9.731902  
    2098A      9.732812  2099A      9.735138  2100A      9.759089  
    2101A      9.761373  2102A      9.768411  2103A      9.773420  
    2104A      9.777944  2105A      9.794596  2106A      9.804550  
    2107A      9.806060  2108A      9.810711  2109A      9.821406  
    2110A      9.823671  2111A      9.837462  2112A      9.845343  
    2113A      9.853742  2114A      9.859367  2115A      9.860796  
    2116A      9.870120  2117A      9.876109  2118A      9.889240  
    2119A      9.895349  2120A      9.903136  2121A      9.912131  
    2122A      9.914627  2123A      9.914848  2124A      9.916835  
    2125A      9.928290  2126A      9.935525  2127A      9.945124  
    2128A      9.957305  2129A      9.969157  2130A      9.983409  
    2131A      9.996224  2132A     10.018031  2133A     10.028521  
    2134A     10.040781  2135A     10.043245  2136A     10.056726  
    2137A     10.061498  2138A     10.071182  2139A     10.084737  
    2140A     10.095908  2141A     10.117703  2142A     10.134408  
    2143A     10.142647  2144A     10.145191  2145A     10.149460  
    2146A     10.155786  2147A     10.166076  2148A     10.173359  
    2149A     10.179399  2150A     10.195751  2151A     10.199757  
    2152A     10.205825  2153A     10.208986  2154A     10.220246  
    2155A     10.229402  2156A     10.247730  2157A     10.252932  
    2158A     10.262338  2159A     10.268402  2160A     10.277393  
    2161A     10.284474  2162A     10.286162  2163A     10.292918  
    2164A     10.295669  2165A     10.297834  2166A     10.301671  
    2167A     10.310192  2168A     10.315735  2169A     10.325179  
    2170A     10.335265  2171A     10.337262  2172A     10.350365  
    2173A     10.356913  2174A     10.361098  2175A     10.364237  
    2176A     10.378653  2177A     10.393055  2178A     10.408221  
    2179A     10.411968  2180A     10.419631  2181A     10.423896  
    2182A     10.437022  2183A     10.446946  2184A     10.453782  
    2185A     10.458415  2186A     10.470027  2187A     10.471000  
    2188A     10.476722  2189A     10.495304  2190A     10.506236  
    2191A     10.527458  2192A     10.566862  2193A     10.581231  
    2194A     10.591200  2195A     10.605852  2196A     10.619908  
    2197A     10.659431  2198A     10.670748  2199A     10.702143  
    2200A     10.705404  2201A     10.735055  2202A     10.754411  
    2203A     10.759610  2204A     10.765755  2205A     10.769145  
    2206A     10.784179  2207A     10.808080  2208A     10.815950  
    2209A     10.829083  2210A     10.841387  2211A     10.844789  
    2212A     10.870922  2213A     10.876691  2214A     10.883517  
    2215A     10.889332  2216A     10.893048  2217A     10.896267  
    2218A     10.906783  2219A     10.948255  2220A     10.952868  
    2221A     10.956907  2222A     10.975407  2223A     10.989677  
    2224A     11.004759  2225A     11.016975  2226A     11.029586  
    2227A     11.036877  2228A     11.040497  2229A     11.051355  
    2230A     11.066379  2231A     11.072994  2232A     11.076179  
    2233A     11.089100  2234A     11.107361  2235A     11.119478  
    2236A     11.124446  2237A     11.128529  2238A     11.138248  
    2239A     11.145040  2240A     11.147944  2241A     11.159024  
    2242A     11.171125  2243A     11.189851  2244A     11.195113  
    2245A     11.204335  2246A     11.217352  2247A     11.220947  
    2248A     11.227045  2249A     11.236895  2250A     11.240870  
    2251A     11.247304  2252A     11.253818  2253A     11.266536  
    2254A     11.276817  2255A     11.284321  2256A     11.289823  
    2257A     11.314027  2258A     11.318124  2259A     11.325321  
    2260A     11.339569  2261A     11.351016  2262A     11.374504  
    2263A     11.384889  2264A     11.398880  2265A     11.416729  
    2266A     11.425261  2267A     11.440073  2268A     11.457139  
    2269A     11.462962  2270A     11.494352  2271A     11.496295  
    2272A     11.523190  2273A     11.529701  2274A     11.541236  
    2275A     11.544729  2276A     11.561218  2277A     11.568647  
    2278A     11.598778  2279A     11.603928  2280A     11.605672  
    2281A     11.610173  2282A     11.613367  2283A     11.635585  
    2284A     11.652813  2285A     11.663832  2286A     11.675172  
    2287A     11.687783  2288A     11.690908  2289A     11.704746  
    2290A     11.711656  2291A     11.715497  2292A     11.736981  
    2293A     11.745755  2294A     11.784443  2295A     11.790028  
    2296A     11.792414  2297A     11.803409  2298A     11.813482  
    2299A     11.830579  2300A     11.862041  2301A     11.866290  
    2302A     11.890602  2303A     11.904233  2304A     11.926562  
    2305A     11.931319  2306A     11.948408  2307A     11.953289  
    2308A     11.963567  2309A     11.976132  2310A     11.996693  
    2311A     12.003827  2312A     12.008928  2313A     12.020653  
    2314A     12.039683  2315A     12.065704  2316A     12.076746  
    2317A     12.106421  2318A     12.156366  2319A     12.166388  
    2320A     12.175796  2321A     12.193475  2322A     12.216256  
    2323A     12.223543  2324A     12.232930  2325A     12.238857  
    2326A     12.241454  2327A     12.260673  2328A     12.268671  
    2329A     12.278136  2330A     12.279053  2331A     12.287121  
    2332A     12.307327  2333A     12.312831  2334A     12.327483  
    2335A     12.346347  2336A     12.346968  2337A     12.367491  
    2338A     12.380627  2339A     12.407314  2340A     12.416219  
    2341A     12.428777  2342A     12.446779  2343A     12.470273  
    2344A     12.499337  2345A     12.524935  2346A     12.545156  
    2347A     12.559211  2348A     12.589830  2349A     12.599724  
    2350A     12.603902  2351A     12.613869  2352A     12.671668  
    2353A     12.722856  2354A     12.743156  2355A     12.755072  
    2356A     12.777466  2357A     12.794678  2358A     12.800424  
    2359A     12.807652  2360A     12.826955  2361A     12.847933  
    2362A     12.860559  2363A     12.880324  2364A     12.888344  
    2365A     12.968434  2366A     12.976587  2367A     12.989200  
    2368A     12.995511  2369A     12.996781  2370A     13.009376  
    2371A     13.046770  2372A     13.069823  2373A     13.072254  
    2374A     13.077418  2375A     13.082885  2376A     13.096646  
    2377A     13.115298  2378A     13.126967  2379A     13.140557  
    2380A     13.159121  2381A     13.172127  2382A     13.193979  
    2383A     13.239551  2384A     13.253442  2385A     13.277937  
    2386A     13.294984  2387A     13.336049  2388A     13.350518  
    2389A     13.357489  2390A     13.358452  2391A     13.396369  
    2392A     13.401725  2393A     13.409998  2394A     13.429905  
    2395A     13.434725  2396A     13.459967  2397A     13.485520  
    2398A     13.504836  2399A     13.511160  2400A     13.519500  
    2401A     13.534158  2402A     13.539875  2403A     13.547559  
    2404A     13.553901  2405A     13.579335  2406A     13.598918  
    2407A     13.616420  2408A     13.649699  2409A     13.686274  
    2410A     13.689158  2411A     13.713619  2412A     13.734060  
    2413A     13.781466  2414A     13.807448  2415A     13.869448  
    2416A     13.905774  2417A     13.910644  2418A     13.955782  
    2419A     14.030438  2420A     14.068143  2421A     14.069794  
    2422A     14.079780  2423A     14.148544  2424A     14.152346  
    2425A     14.182812  2426A     14.267609  2427A     14.384346  
    2428A     14.400101  2429A     14.506538  2430A     14.623756  
    2431A     14.631631  2432A     14.648465  2433A     14.660353  
    2434A     14.665080  2435A     14.697778  2436A     14.794506  
    2437A     14.896796  2438A     14.989500  2439A     15.068612  
    2440A     15.119296  2441A     15.161906  2442A     15.174260  
    2443A     15.198294  2444A     15.248111  2445A     15.366748  
    2446A     15.389815  2447A     15.397373  2448A     15.432604  
    2449A     15.551676  2450A     15.564487  2451A     15.590005  
    2452A     15.594861  2453A     17.537124  2454A     17.680411  
    2455A     26.685589  2456A     27.000175  2457A     27.238926  
    2458A     27.410677  2459A     27.437036  2460A     28.088950  
    2461A     28.149113  2462A     28.456314  2463A     28.472949  
    2464A     28.642954  2465A     36.141208  2466A     36.347705  
    2467A     36.406373  2468A     44.338536  2469A     44.649980  
    2470A     44.690175  2471A     45.007011  2472A     45.109881  
    2473A     46.318799  2474A     46.609411  

    Final Occupation by Irrep:
              A 
    DOCC [    78 ]

  Energy converged.

  @DF-RHF Final Energy: -1077.50255689774258

   => Energetics <=

    Nuclear Repulsion Energy =           1638.2696123684520444
    One-Electron Energy =               -4734.8941355492070215
    Two-Electron Energy =                2019.1219662830126254
    Total Energy =                      -1077.5025568977425792



Properties will be evaluated at   0.000000,   0.000000,   0.000000 Bohr

Properties computed using the SCF density matrix

  Nuclear Dipole Moment: (a.u.)
     X:     9.1337      Y:     7.4118      Z:    -1.1525

  Electronic Dipole Moment: (a.u.)
     X:    -6.9461      Y:    -5.0796      Z:     2.0754

  Dipole Moment: (a.u.)
     X:     2.1875      Y:     2.3322      Z:     0.9229     Total:     3.3281

  Dipole Moment: (Debye)
     X:     5.5601      Y:     5.9280      Z:     2.3459     Total:     8.4592


*** tstop() called on hex15 at Wed Mar  7 09:52:51 2018
Module time:
	user time   =    6988.37 seconds =     116.47 minutes
	system time =    1479.89 seconds =      24.66 minutes
	total time  =       7474 seconds =     124.57 minutes
Total time:
	user time   =    6988.37 seconds =     116.47 minutes
	system time =    1479.89 seconds =      24.66 minutes
	total time  =       7474 seconds =     124.57 minutes

*** Psi4 exiting successfully. Buy a developer a beer!
