
    -----------------------------------------------------------------------
          Psi4: An Open-Source Ab Initio Electronic Structure Package
                               Psi4 1.2a1.dev875 

                         Git: Rev {symm_JK} 0ea9481 dirty


    R. M. Parrish, L. A. Burns, D. G. A. Smith, A. C. Simmonett,
    A. E. DePrince III, E. G. Hohenstein, U. Bozkaya, A. Yu. Sokolov,
    R. Di Remigio, R. M. Richard, J. F. Gonthier, A. M. James,
    H. R. McAlexander, A. Kumar, M. Saitow, X. Wang, B. P. Pritchard,
    P. Verma, H. F. Schaefer III, K. Patkowski, R. A. King, E. F. Valeev,
    F. A. Evangelista, J. M. Turney, T. D. Crawford, and C. D. Sherrill,
    J. Chem. Theory Comput. 13(7) pp 3185--3197 (2017).
    (doi: 10.1021/acs.jctc.7b00174)

    -----------------------------------------------------------------------


    Psi4 started on: Thursday, 01 March 2018 05:04PM

    Process ID:  28048
    PSIDATADIR: /theoryfs2/ds/schieber/Gits/mspsi4/objdir3/stage/usr/local/psi4/share/psi4
    Memory:     500.0 MiB
    Threads:    6
    
  ==> Input File <==

--------------------------------------------------------------------------
memory 60 Gb

molecule protein_39 {
0 1
 N   18.626  30.444   6.627
 C   17.853  29.516   5.837
 C   16.945  30.292   4.886
 O   15.843  30.678   5.237
 C   17.047  28.642   6.811
 C   16.316  27.513   6.146
 O   16.236  27.458   4.905
 O   15.762  26.696   6.882
 N   17.407  27.054  -1.437
 C   17.227  26.751  -0.026
 C   18.555  26.446   0.653
 O   19.003  25.309   0.692
 C   16.258  25.572   0.084
 C   15.759  25.336   1.493
 O   16.399  25.780   2.453
 O   14.731  24.675   1.645
 N   19.106  26.199   3.688
 C   18.957  25.372   4.876
 C   18.845  23.903   4.520
 O   18.660  23.054   5.417
 H   18.180  30.990   7.295
 H   18.510  28.835   5.249
 H   16.336  29.276   7.377
 H   17.778  28.186   7.516
 H   15.845  26.702   7.843
 H   17.860  26.421  -2.023
 H   16.724  27.595   0.500
 H   16.724  24.663  -0.337
 H   15.363  25.845  -0.519
 H   16.737  25.171   3.109
 H   18.314  26.771   3.377
 H   18.015  25.631   5.391
 H   19.792  25.567   5.577
 H   19.646  30.419   6.619
 H   17.295  30.415   3.850
 H   16.947  27.858  -1.864
 H   19.060  27.284   1.155
 H   20.034  26.347   3.290
 H   18.824  23.654   3.449
}

set {
basis cc-pvdz
scf_type df
guess sad
DF_SCF_TYPE SYMM_JK
}

energy('HF')
--------------------------------------------------------------------------

  Memory set to  55.879 GiB by Python driver.

*** tstart() called on hex15
*** at Thu Mar  1 17:04:56 2018

   => Loading Basis Set <=

    Name: CC-PVDZ
    Role: ORBITAL
    Keyword: BASIS
    atoms 1, 9, 17                      entry N          line   168 file /theoryfs2/ds/schieber/Gits/mspsi4/objdir3/stage/usr/local/psi4/share/psi4/basis/cc-pvdz.gbs 
    atoms 2-3, 5-6, 10-11, 13-14, 18-19 entry C          line   138 file /theoryfs2/ds/schieber/Gits/mspsi4/objdir3/stage/usr/local/psi4/share/psi4/basis/cc-pvdz.gbs 
    atoms 4, 7-8, 12, 15-16, 20         entry O          line   198 file /theoryfs2/ds/schieber/Gits/mspsi4/objdir3/stage/usr/local/psi4/share/psi4/basis/cc-pvdz.gbs 
    atoms 21-39                         entry H          line    22 file /theoryfs2/ds/schieber/Gits/mspsi4/objdir3/stage/usr/local/psi4/share/psi4/basis/cc-pvdz.gbs 


         ---------------------------------------------------------
                                   SCF
            by Justin Turney, Rob Parrish, Andy Simmonett
                             and Daniel Smith
                              RHF Reference
                        6 Threads,  57220 MiB Core
         ---------------------------------------------------------

  ==> Geometry <==

    Molecular point group: c1
    Full point group: C1

    Geometry (in Angstrom), charge = 0, multiplicity = 1:

       Center              X                  Y                   Z               Mass       
    ------------   -----------------  -----------------  -----------------  -----------------
           N          1.351848201903     3.618071616974     3.042782948432    14.003074004780
           C          0.578848201903     2.690071616974     2.252782948432    12.000000000000
           C         -0.329151798097     3.466071616974     1.301782948432    12.000000000000
           O         -1.431151798097     3.852071616974     1.652782948432    15.994914619560
           C         -0.227151798097     1.816071616974     3.226782948432    12.000000000000
           C         -0.958151798097     0.687071616974     2.561782948432    12.000000000000
           O         -1.038151798097     0.632071616974     1.320782948432    15.994914619560
           O         -1.512151798097    -0.129928383026     3.297782948432    15.994914619560
           N          0.132848201903     0.228071616974    -5.021217051568    14.003074004780
           C         -0.047151798097    -0.074928383026    -3.610217051568    12.000000000000
           C          1.280848201903    -0.379928383026    -2.931217051568    12.000000000000
           O          1.728848201903    -1.516928383026    -2.892217051568    15.994914619560
           C         -1.016151798097    -1.253928383026    -3.500217051568    12.000000000000
           C         -1.515151798097    -1.489928383026    -2.091217051568    12.000000000000
           O         -0.875151798097    -1.045928383026    -1.131217051568    15.994914619560
           O         -2.543151798097    -2.150928383026    -1.939217051568    15.994914619560
           N          1.831848201903    -0.626928383026     0.103782948432    14.003074004780
           C          1.682848201903    -1.453928383026     1.291782948432    12.000000000000
           C          1.570848201903    -2.922928383026     0.935782948432    12.000000000000
           O          1.385848201903    -3.771928383026     1.832782948432    15.994914619560
           H          0.905848201903     4.164071616974     3.710782948432     1.007825032070
           H          1.235848201903     2.009071616974     1.664782948432     1.007825032070
           H         -0.938151798097     2.450071616974     3.792782948432     1.007825032070
           H          0.503848201903     1.360071616974     3.931782948432     1.007825032070
           H         -1.429151798097    -0.123928383026     4.258782948432     1.007825032070
           H          0.585848201903    -0.404928383026    -5.607217051568     1.007825032070
           H         -0.550151798097     0.769071616974    -3.084217051568     1.007825032070
           H         -0.550151798097    -2.162928383026    -3.921217051568     1.007825032070
           H         -1.911151798097    -0.980928383026    -4.103217051568     1.007825032070
           H         -0.537151798097    -1.654928383026    -0.475217051568     1.007825032070
           H          1.039848201903    -0.054928383026    -0.207217051568     1.007825032070
           H          0.740848201903    -1.194928383026     1.806782948432     1.007825032070
           H          2.517848201903    -1.258928383026     1.992782948432     1.007825032070
           H          2.371848201903     3.593071616974     3.034782948432     1.007825032070
           H          0.020848201903     3.589071616974     0.265782948432     1.007825032070
           H         -0.327151798097     1.032071616974    -5.448217051568     1.007825032070
           H          1.785848201903     0.458071616974    -2.429217051568     1.007825032070
           H          2.759848201903    -0.478928383026    -0.294217051568     1.007825032070
           H          1.549848201903    -3.171928383026    -0.135217051568     1.007825032070

  Running in c1 symmetry.

  Rotational constants: A =      0.01135  B =      0.00596  C =      0.00509 [cm^-1]
  Rotational constants: A =    340.34658  B =    178.57705  C =    152.51078 [MHz]
  Nuclear repulsion = 1638.269612368452044

  Charge       = 0
  Multiplicity = 1
  Electrons    = 156
  Nalpha       = 78
  Nbeta        = 78

  ==> Algorithm <==

  SCF Algorithm Type is DF.
  DIIS enabled.
  MOM disabled.
  Fractional occupation disabled.
  Guess Type is SAD.
  Energy threshold   = 1.00e-06
  Density threshold  = 1.00e-06
  Integral threshold = 0.00e+00

  ==> Primary Basis <==

  Basis Set: CC-PVDZ
    Blend: CC-PVDZ
    Number of shells: 177
    Number of basis function: 375
    Number of Cartesian functions: 395
    Spherical Harmonics?: true
    Max angular momentum: 2

   => Loading Basis Set <=

    Name: (CC-PVDZ AUX)
    Role: JKFIT
    Keyword: DF_BASIS_SCF
    atoms 1, 9, 17                      entry N          line   171 file /theoryfs2/ds/schieber/Gits/mspsi4/objdir3/stage/usr/local/psi4/share/psi4/basis/cc-pvdz-jkfit.gbs 
    atoms 2-3, 5-6, 10-11, 13-14, 18-19 entry C          line   121 file /theoryfs2/ds/schieber/Gits/mspsi4/objdir3/stage/usr/local/psi4/share/psi4/basis/cc-pvdz-jkfit.gbs 
    atoms 4, 7-8, 12, 15-16, 20         entry O          line   221 file /theoryfs2/ds/schieber/Gits/mspsi4/objdir3/stage/usr/local/psi4/share/psi4/basis/cc-pvdz-jkfit.gbs 
    atoms 21-39                         entry H          line    51 file /theoryfs2/ds/schieber/Gits/mspsi4/objdir3/stage/usr/local/psi4/share/psi4/basis/cc-pvdz-jkfit.gbs 

  ==> Pre-Iterations <==

   -------------------------------------------------------
    Irrep   Nso     Nmo     Nalpha   Nbeta   Ndocc  Nsocc
   -------------------------------------------------------
     A        375     375       0       0       0       0
   -------------------------------------------------------
    Total     375     375      78      78      78       0
   -------------------------------------------------------

  ==> Integral Setup <==


    ==> DF_Helper <==
      nao           = 375
      naux          = 1837
      Scwarz cutoff = 1.000000E-12
      mem (doubles) = 5625000000
      nthreads      = 6
      Algorithm     = STORE
      AO_core?      = 1
      MO_core?      = 0
      hold metric   = 0
      metric power  = -5.000000E-01
  Fitting condition = 1.000000E-12
  Mask sparsity (%) = (30.688711)


  Minimum eigenvalue in the overlap matrix is 2.0008142191E-03.
  Using Symmetric Orthogonalization.

  SCF Guess: Superposition of Atomic Densities via on-the-fly atomic UHF.

  ==> Iterations <==

                           Total Energy        Delta E     RMS |[F,P]|

   @DF-RHF iter   0: -1084.35243586903903   -1.08435e+03   5.39854e-02 
   @DF-RHF iter   1: -1076.40926835329196    7.94317e+00   7.08295e-03 
   @DF-RHF iter   2: -1076.87289665079152   -4.63628e-01   4.61226e-03 DIIS
   @DF-RHF iter   3: -1077.07336958343240   -2.00473e-01   1.08560e-03 DIIS
   @DF-RHF iter   4: -1077.09512692054932   -2.17573e-02   3.51367e-04 DIIS
   @DF-RHF iter   5: -1077.09784838949054   -2.72147e-03   1.31797e-04 DIIS
   @DF-RHF iter   6: -1077.09844273087401   -5.94341e-04   5.33647e-05 DIIS
   @DF-RHF iter   7: -1077.09855711872046   -1.14388e-04   2.23134e-05 DIIS
   @DF-RHF iter   8: -1077.09857620620664   -1.90875e-05   1.02135e-05 DIIS
   @DF-RHF iter   9: -1077.09858064433433   -4.43813e-06   4.51372e-06 DIIS
   @DF-RHF iter  10: -1077.09858184680002   -1.20247e-06   2.20656e-06 DIIS
   @DF-RHF iter  11: -1077.09858220965111   -3.62851e-07   9.19298e-07 DIIS

  ==> Post-Iterations <==

    Orbital Energies (a.u.)
    -----------------------

    Doubly Occupied:                                                      

       1A    -20.644325     2A    -20.601898     3A    -20.568874  
       4A    -20.561746     5A    -20.558734     6A    -20.541069  
       7A    -20.512718     8A    -15.557650     9A    -15.551298  
      10A    -15.549039    11A    -11.400622    12A    -11.366743  
      13A    -11.345728    14A    -11.340126    15A    -11.336333  
      16A    -11.295758    17A    -11.287348    18A    -11.283683  
      19A    -11.266326    20A    -11.237359    21A     -1.527146  
      22A     -1.495902    23A     -1.395470    24A     -1.391058  
      25A     -1.366958    26A     -1.355649    27A     -1.328273  
      28A     -1.209945    29A     -1.196234    30A     -1.182215  
      31A     -1.053683    32A     -1.038752    33A     -0.961929  
      34A     -0.947401    35A     -0.932497    36A     -0.903879  
      37A     -0.870108    38A     -0.805717    39A     -0.799462  
      40A     -0.790287    41A     -0.743812    42A     -0.725566  
      43A     -0.714881    44A     -0.700926    45A     -0.689265  
      46A     -0.687679    47A     -0.683056    48A     -0.680377  
      49A     -0.661160    50A     -0.655725    51A     -0.654006  
      52A     -0.647118    53A     -0.638269    54A     -0.626997  
      55A     -0.625804    56A     -0.622868    57A     -0.616199  
      58A     -0.585510    59A     -0.573933    60A     -0.570214  
      61A     -0.557097    62A     -0.552344    63A     -0.528220  
      64A     -0.524268    65A     -0.514330    66A     -0.509342  
      67A     -0.498194    68A     -0.482351    69A     -0.466779  
      70A     -0.455534    71A     -0.448172    72A     -0.440229  
      73A     -0.438466    74A     -0.437572    75A     -0.426606  
      76A     -0.380377    77A     -0.376173    78A     -0.369561  

    Virtual:                                                              

      79A      0.115973    80A      0.129410    81A      0.132823  
      82A      0.138799    83A      0.150854    84A      0.167715  
      85A      0.174915    86A      0.178881    87A      0.191515  
      88A      0.196825    89A      0.209004    90A      0.211064  
      91A      0.213261    92A      0.229224    93A      0.238818  
      94A      0.243420    95A      0.253506    96A      0.260169  
      97A      0.272819    98A      0.276436    99A      0.285164  
     100A      0.293833   101A      0.314961   102A      0.338238  
     103A      0.347619   104A      0.365755   105A      0.378885  
     106A      0.413810   107A      0.420093   108A      0.424382  
     109A      0.430632   110A      0.432098   111A      0.438545  
     112A      0.449961   113A      0.457636   114A      0.470752  
     115A      0.480321   116A      0.510156   117A      0.517252  
     118A      0.564226   119A      0.596935   120A      0.622153  
     121A      0.632712   122A      0.641786   123A      0.652448  
     124A      0.673026   125A      0.690204   126A      0.692098  
     127A      0.695876   128A      0.701707   129A      0.710340  
     130A      0.719088   131A      0.730564   132A      0.736976  
     133A      0.741046   134A      0.746335   135A      0.754003  
     136A      0.759653   137A      0.772180   138A      0.780356  
     139A      0.786749   140A      0.792793   141A      0.800103  
     142A      0.802697   143A      0.809903   144A      0.816837  
     145A      0.838848   146A      0.843689   147A      0.847441  
     148A      0.852541   149A      0.856441   150A      0.860409  
     151A      0.866082   152A      0.874430   153A      0.875799  
     154A      0.882680   155A      0.884514   156A      0.887880  
     157A      0.893041   158A      0.897485   159A      0.907868  
     160A      0.913951   161A      0.919590   162A      0.933470  
     163A      0.943318   164A      0.959929   165A      0.964833  
     166A      0.974218   167A      0.977530   168A      0.996204  
     169A      1.004335   170A      1.013442   171A      1.024144  
     172A      1.035072   173A      1.041889   174A      1.056669  
     175A      1.074579   176A      1.076922   177A      1.090017  
     178A      1.091621   179A      1.098598   180A      1.114053  
     181A      1.116386   182A      1.136249   183A      1.139300  
     184A      1.158364   185A      1.178903   186A      1.211015  
     187A      1.222797   188A      1.240977   189A      1.253480  
     190A      1.282312   191A      1.287484   192A      1.294398  
     193A      1.301118   194A      1.313006   195A      1.319719  
     196A      1.326696   197A      1.341026   198A      1.343214  
     199A      1.360899   200A      1.361741   201A      1.372092  
     202A      1.372796   203A      1.383161   204A      1.385557  
     205A      1.391030   206A      1.401617   207A      1.407684  
     208A      1.420739   209A      1.427756   210A      1.436235  
     211A      1.445367   212A      1.460571   213A      1.469526  
     214A      1.474411   215A      1.499545   216A      1.507615  
     217A      1.513990   218A      1.526307   219A      1.554390  
     220A      1.561180   221A      1.578844   222A      1.597999  
     223A      1.610555   224A      1.614910   225A      1.618447  
     226A      1.635883   227A      1.645138   228A      1.650547  
     229A      1.660880   230A      1.670930   231A      1.681197  
     232A      1.698010   233A      1.716838   234A      1.723276  
     235A      1.733411   236A      1.739289   237A      1.777883  
     238A      1.784345   239A      1.790686   240A      1.802366  
     241A      1.812482   242A      1.824716   243A      1.845194  
     244A      1.857184   245A      1.864135   246A      1.874042  
     247A      1.880397   248A      1.889279   249A      1.902164  
     250A      1.908691   251A      1.915202   252A      1.926635  
     253A      1.934157   254A      1.936650   255A      1.947914  
     256A      1.952887   257A      1.955634   258A      1.962106  
     259A      1.971724   260A      1.979032   261A      1.991333  
     262A      1.997722   263A      2.008695   264A      2.014331  
     265A      2.016213   266A      2.038977   267A      2.042907  
     268A      2.051832   269A      2.061483   270A      2.072237  
     271A      2.079621   272A      2.089105   273A      2.097070  
     274A      2.109680   275A      2.113670   276A      2.128807  
     277A      2.138228   278A      2.143507   279A      2.153520  
     280A      2.160720   281A      2.182424   282A      2.183916  
     283A      2.186871   284A      2.204718   285A      2.210694  
     286A      2.226277   287A      2.233578   288A      2.256217  
     289A      2.274323   290A      2.305083   291A      2.311548  
     292A      2.344177   293A      2.357156   294A      2.361074  
     295A      2.384263   296A      2.390441   297A      2.426510  
     298A      2.446553   299A      2.448675   300A      2.473818  
     301A      2.480308   302A      2.494883   303A      2.503135  
     304A      2.523444   305A      2.528530   306A      2.546401  
     307A      2.554957   308A      2.565684   309A      2.607300  
     310A      2.609771   311A      2.613127   312A      2.641902  
     313A      2.653350   314A      2.658493   315A      2.669753  
     316A      2.697874   317A      2.707485   318A      2.718344  
     319A      2.728232   320A      2.743510   321A      2.773978  
     322A      2.787899   323A      2.790287   324A      2.812635  
     325A      2.820967   326A      2.852286   327A      2.860094  
     328A      2.867595   329A      2.884191   330A      2.888489  
     331A      2.895975   332A      2.909970   333A      2.968789  
     334A      2.981875   335A      3.020232   336A      3.042982  
     337A      3.056517   338A      3.069729   339A      3.075584  
     340A      3.085078   341A      3.093253   342A      3.116941  
     343A      3.147270   344A      3.150542   345A      3.159543  
     346A      3.230986   347A      3.295041   348A      3.304626  
     349A      3.306297   350A      3.366307   351A      3.399807  
     352A      3.418175   353A      3.423040   354A      3.431725  
     355A      3.463050   356A      3.470776   357A      3.480574  
     358A      3.498254   359A      3.512830   360A      3.549285  
     361A      3.567659   362A      3.656568   363A      3.716686  
     364A      3.736891   365A      3.743448   366A      3.808793  
     367A      3.817931   368A      3.847534   369A      3.849519  
     370A      3.858440   371A      3.862336   372A      3.891402  
     373A      3.965946   374A      4.166552   375A      4.243107  

    Final Occupation by Irrep:
              A 
    DOCC [    78 ]

  Energy converged.

  @DF-RHF Final Energy: -1077.09858220965111

   => Energetics <=

    Nuclear Repulsion Energy =           1638.2696123684520444
    One-Electron Energy =               -4734.9987974466166634
    Two-Electron Energy =                2019.6306028685137335
    Total Energy =                      -1077.0985822096511129



Properties will be evaluated at   0.000000,   0.000000,   0.000000 Bohr

Properties computed using the SCF density matrix

  Nuclear Dipole Moment: (a.u.)
     X:     9.1337      Y:     7.4118      Z:    -1.1525

  Electronic Dipole Moment: (a.u.)
     X:    -6.9445      Y:    -5.1101      Z:     2.1246

  Dipole Moment: (a.u.)
     X:     2.1891      Y:     2.3018      Z:     0.9722     Total:     3.3220

  Dipole Moment: (Debye)
     X:     5.5641      Y:     5.8505      Z:     2.4710     Total:     8.4436


*** tstop() called on hex15 at Thu Mar  1 17:05:21 2018
Module time:
	user time   =      80.45 seconds =       1.34 minutes
	system time =       1.58 seconds =       0.03 minutes
	total time  =         25 seconds =       0.42 minutes
Total time:
	user time   =      80.45 seconds =       1.34 minutes
	system time =       1.58 seconds =       0.03 minutes
	total time  =         25 seconds =       0.42 minutes

*** Psi4 exiting successfully. Buy a developer a beer!
