
    -----------------------------------------------------------------------
          Psi4: An Open-Source Ab Initio Electronic Structure Package
                               Psi4 1.2a1.dev875 

                         Git: Rev {symm_JK} 0ea9481 dirty


    R. M. Parrish, L. A. Burns, D. G. A. Smith, A. C. Simmonett,
    A. E. DePrince III, E. G. Hohenstein, U. Bozkaya, A. Yu. Sokolov,
    R. Di Remigio, R. M. Richard, J. F. Gonthier, A. M. James,
    H. R. McAlexander, A. Kumar, M. Saitow, X. Wang, B. P. Pritchard,
    P. Verma, H. F. Schaefer III, K. Patkowski, R. A. King, E. F. Valeev,
    F. A. Evangelista, J. M. Turney, T. D. Crawford, and C. D. Sherrill,
    J. Chem. Theory Comput. 13(7) pp 3185--3197 (2017).
    (doi: 10.1021/acs.jctc.7b00174)

    -----------------------------------------------------------------------


    Psi4 started on: Monday, 05 March 2018 04:19AM

    Process ID:  19551
    PSIDATADIR: /theoryfs2/ds/schieber/Gits/mspsi4/objdir3/stage/usr/local/psi4/share/psi4
    Memory:     500.0 MiB
    Threads:    6
    
  ==> Input File <==

--------------------------------------------------------------------------
memory 60 Gb

molecule protein_103 {
0 1
 N   18.626  30.444   6.627
 C   17.853  29.516   5.837
 C   16.945  30.292   4.886
 O   15.843  30.678   5.237
 C   17.047  28.642   6.811
 C   16.316  27.513   6.146
 O   16.236  27.458   4.905
 O   15.762  26.696   6.882
 N    4.567  24.042   8.795
 C    4.886  22.777   8.145
 C    6.265  22.720   7.521
 O    6.723  23.689   6.900
 N   17.407  27.054  -1.437
 C   17.227  26.751  -0.026
 C   18.555  26.446   0.653
 O   19.003  25.309   0.692
 C   16.258  25.572   0.084
 C   15.759  25.336   1.493
 O   16.399  25.780   2.453
 O   14.731  24.675   1.645
 N   19.106  26.199   3.688
 C   18.957  25.372   4.876
 C   18.845  23.903   4.520
 O   18.660  23.054   5.417
 N   20.536  20.559   2.918
 C   21.779  19.912   2.496
 C   21.693  19.374   1.107
 O   22.642  19.502   0.361
 C   22.169  18.827   3.447
 C   22.272  19.337   4.844
 O   22.714  20.482   5.029
 O   21.836  18.647   5.778
 N   20.524  18.868   0.719
 C   20.355  18.227  -0.584
 C   19.212  18.807  -1.371
 O   18.383  19.523  -0.846
 C   20.084  16.745  -0.413
 C   21.023  16.088   0.586
 O   22.233  15.970   0.265
 O   20.531  15.682   1.672
 N   15.750  18.102  -3.440
 C   14.628  17.162  -3.514
 C   13.618  17.726  -4.436
 O   13.169  18.861  -4.263
 C   13.781  17.005  -2.245
 C   13.297  15.592  -2.184
 C   14.518  17.455  -1.007
 N   13.583  16.896   8.239
 C   13.484  18.319   8.459
 C   12.647  18.565   9.672
 O   12.880  17.976  10.721
 H   18.180  30.990   7.295
 H   18.510  28.835   5.249
 H   16.336  29.276   7.377
 H   17.778  28.186   7.516
 H   15.845  26.702   7.843
 H    4.436  24.871   8.195
 H    4.744  21.930   8.802
 H    4.143  22.632   7.335
 H   17.860  26.421  -2.023
 H   16.724  27.595   0.500
 H   16.724  24.663  -0.337
 H   15.363  25.845  -0.519
 H   16.737  25.171   3.109
 H   18.314  26.771   3.377
 H   18.015  25.631   5.391
 H   19.792  25.567   5.577
 H   19.976  20.073   3.597
 H   22.602  20.664   2.537
 H   23.175  18.459   3.144
 H   21.465  17.966   3.392
 H   21.492  17.752   5.634
 H   19.735  18.818   1.381
 H   21.291  18.340  -1.170
 H   20.109  16.188  -1.374
 H   19.050  16.648  -0.012
 H   19.629  15.364   1.734
 H   15.541  19.065  -3.172
 H   15.011  16.180  -3.836
 H   12.886  17.674  -2.203
 H   14.115  14.872  -2.046
 H   12.706  15.323  -3.086
 H   12.624  15.478  -1.307
 H   15.405  16.799  -0.936
 H   13.886  17.316  -0.103
 H   14.813  18.522  -1.068
 H   12.728  16.393   8.153
 H   13.053  18.790   7.555
 H   14.480  18.781   8.624
 H   19.646  30.419   6.619
 H   17.295  30.415   3.850
 H    4.454  24.117   9.806
 H    6.887  21.864   7.822
 H   16.947  27.858  -1.864
 H   19.060  27.284   1.155
 H   20.034  26.347   3.290
 H   18.824  23.654   3.449
 H   20.197  21.395   2.443
 H   19.162  18.493  -2.424
 H   16.715  17.829  -3.624
 H   13.269  17.060  -5.239
 H   14.494  16.447   8.142
 H   11.982  19.438   9.599
}

set {
basis aug-cc-pvtz
scf_type df
guess sad
DF_SCF_TYPE DFJK
}

energy('HF')
--------------------------------------------------------------------------

  Memory set to  55.879 GiB by Python driver.

*** tstart() called on hex15
*** at Mon Mar  5 04:19:57 2018

   => Loading Basis Set <=

    Name: AUG-CC-PVTZ
    Role: ORBITAL
    Keyword: BASIS
    atoms 1, 9, 13, 21, 25, 33, 41, 48                                                          entry N          line   281 file /theoryfs2/ds/schieber/Gits/mspsi4/objdir3/stage/usr/local/psi4/share/psi4/basis/aug-cc-pvtz.gbs 
    atoms 2-3, 5-6, 10-11, 14-15, 17-18, 22-23, 26-27, 29-30, 34-35, 37-38, 42-43, 45-47, 49-50 entry C          line   235 file /theoryfs2/ds/schieber/Gits/mspsi4/objdir3/stage/usr/local/psi4/share/psi4/basis/aug-cc-pvtz.gbs 
    atoms 4, 7-8, 12, 16, 19-20, 24, 28, 31-32, 36, 39-40, 44, 51                               entry O          line   327 file /theoryfs2/ds/schieber/Gits/mspsi4/objdir3/stage/usr/local/psi4/share/psi4/basis/aug-cc-pvtz.gbs 
    atoms 52-103                                                                                entry H          line    36 file /theoryfs2/ds/schieber/Gits/mspsi4/objdir3/stage/usr/local/psi4/share/psi4/basis/aug-cc-pvtz.gbs 


         ---------------------------------------------------------
                                   SCF
            by Justin Turney, Rob Parrish, Andy Simmonett
                             and Daniel Smith
                              RHF Reference
                        6 Threads,  57220 MiB Core
         ---------------------------------------------------------

  ==> Geometry <==

    Molecular point group: c1
    Full point group: C1

    Geometry (in Angstrom), charge = 0, multiplicity = 1:

       Center              X                  Y                   Z               Mass       
    ------------   -----------------  -----------------  -----------------  -----------------
           N          1.834525169641     8.467048519537     3.745546000143    14.003074004780
           C          1.061525169641     7.539048519537     2.955546000143    12.000000000000
           C          0.153525169641     8.315048519537     2.004546000143    12.000000000000
           O         -0.948474830359     8.701048519537     2.355546000143    15.994914619560
           C          0.255525169641     6.665048519537     3.929546000143    12.000000000000
           C         -0.475474830359     5.536048519537     3.264546000143    12.000000000000
           O         -0.555474830359     5.481048519537     2.023546000143    15.994914619560
           O         -1.029474830359     4.719048519537     4.000546000143    15.994914619560
           N        -12.224474830359     2.065048519537     5.913546000143    14.003074004780
           C        -11.905474830359     0.800048519537     5.263546000143    12.000000000000
           C        -10.526474830359     0.743048519537     4.639546000143    12.000000000000
           O        -10.068474830359     1.712048519537     4.018546000143    15.994914619560
           N          0.615525169641     5.077048519537    -4.318453999857    14.003074004780
           C          0.435525169641     4.774048519537    -2.907453999857    12.000000000000
           C          1.763525169641     4.469048519537    -2.228453999857    12.000000000000
           O          2.211525169641     3.332048519537    -2.189453999857    15.994914619560
           C         -0.533474830359     3.595048519537    -2.797453999857    12.000000000000
           C         -1.032474830359     3.359048519537    -1.388453999857    12.000000000000
           O         -0.392474830359     3.803048519537    -0.428453999857    15.994914619560
           O         -2.060474830359     2.698048519537    -1.236453999857    15.994914619560
           N          2.314525169641     4.222048519537     0.806546000143    14.003074004780
           C          2.165525169641     3.395048519537     1.994546000143    12.000000000000
           C          2.053525169641     1.926048519537     1.638546000143    12.000000000000
           O          1.868525169641     1.077048519537     2.535546000143    15.994914619560
           N          3.744525169641    -1.417951480463     0.036546000143    14.003074004780
           C          4.987525169641    -2.064951480463    -0.385453999857    12.000000000000
           C          4.901525169641    -2.602951480463    -1.774453999857    12.000000000000
           O          5.850525169641    -2.474951480463    -2.520453999857    15.994914619560
           C          5.377525169641    -3.149951480463     0.565546000143    12.000000000000
           C          5.480525169641    -2.639951480463     1.962546000143    12.000000000000
           O          5.922525169641    -1.494951480463     2.147546000143    15.994914619560
           O          5.044525169641    -3.329951480463     2.896546000143    15.994914619560
           N          3.732525169641    -3.108951480463    -2.162453999857    14.003074004780
           C          3.563525169641    -3.749951480463    -3.465453999857    12.000000000000
           C          2.420525169641    -3.169951480463    -4.252453999857    12.000000000000
           O          1.591525169641    -2.453951480463    -3.727453999857    15.994914619560
           C          3.292525169641    -5.231951480463    -3.294453999857    12.000000000000
           C          4.231525169641    -5.888951480463    -2.295453999857    12.000000000000
           O          5.441525169641    -6.006951480463    -2.616453999857    15.994914619560
           O          3.739525169641    -6.294951480463    -1.209453999857    15.994914619560
           N         -1.041474830359    -3.874951480463    -6.321453999857    14.003074004780
           C         -2.163474830359    -4.814951480463    -6.395453999857    12.000000000000
           C         -3.173474830359    -4.250951480463    -7.317453999857    12.000000000000
           O         -3.622474830359    -3.115951480463    -7.144453999857    15.994914619560
           C         -3.010474830359    -4.971951480463    -5.126453999857    12.000000000000
           C         -3.494474830359    -6.384951480463    -5.065453999857    12.000000000000
           C         -2.273474830359    -4.521951480463    -3.888453999857    12.000000000000
           N         -3.208474830359    -5.080951480463     5.357546000143    14.003074004780
           C         -3.307474830359    -3.657951480463     5.577546000143    12.000000000000
           C         -4.144474830359    -3.411951480463     6.790546000143    12.000000000000
           O         -3.911474830359    -4.000951480463     7.839546000143    15.994914619560
           H          1.388525169641     9.013048519537     4.413546000143     1.007825032070
           H          1.718525169641     6.858048519537     2.367546000143     1.007825032070
           H         -0.455474830359     7.299048519537     4.495546000143     1.007825032070
           H          0.986525169641     6.209048519537     4.634546000143     1.007825032070
           H         -0.946474830359     4.725048519537     4.961546000143     1.007825032070
           H        -12.355474830359     2.894048519537     5.313546000143     1.007825032070
           H        -12.047474830359    -0.046951480463     5.920546000143     1.007825032070
           H        -12.648474830359     0.655048519537     4.453546000143     1.007825032070
           H          1.068525169641     4.444048519537    -4.904453999857     1.007825032070
           H         -0.067474830359     5.618048519537    -2.381453999857     1.007825032070
           H         -0.067474830359     2.686048519537    -3.218453999857     1.007825032070
           H         -1.428474830359     3.868048519537    -3.400453999857     1.007825032070
           H         -0.054474830359     3.194048519537     0.227546000143     1.007825032070
           H          1.522525169641     4.794048519537     0.495546000143     1.007825032070
           H          1.223525169641     3.654048519537     2.509546000143     1.007825032070
           H          3.000525169641     3.590048519537     2.695546000143     1.007825032070
           H          3.184525169641    -1.903951480463     0.715546000143     1.007825032070
           H          5.810525169641    -1.312951480463    -0.344453999857     1.007825032070
           H          6.383525169641    -3.517951480463     0.262546000143     1.007825032070
           H          4.673525169641    -4.010951480463     0.510546000143     1.007825032070
           H          4.700525169641    -4.224951480463     2.752546000143     1.007825032070
           H          2.943525169641    -3.158951480463    -1.500453999857     1.007825032070
           H          4.499525169641    -3.636951480463    -4.051453999857     1.007825032070
           H          3.317525169641    -5.788951480463    -4.255453999857     1.007825032070
           H          2.258525169641    -5.328951480463    -2.893453999857     1.007825032070
           H          2.837525169641    -6.612951480463    -1.147453999857     1.007825032070
           H         -1.250474830359    -2.911951480463    -6.053453999857     1.007825032070
           H         -1.780474830359    -5.796951480463    -6.717453999857     1.007825032070
           H         -3.905474830359    -4.302951480463    -5.084453999857     1.007825032070
           H         -2.676474830359    -7.104951480463    -4.927453999857     1.007825032070
           H         -4.085474830359    -6.653951480463    -5.967453999857     1.007825032070
           H         -4.167474830359    -6.498951480463    -4.188453999857     1.007825032070
           H         -1.386474830359    -5.177951480463    -3.817453999857     1.007825032070
           H         -2.905474830359    -4.660951480463    -2.984453999857     1.007825032070
           H         -1.978474830359    -3.454951480463    -3.949453999857     1.007825032070
           H         -4.063474830359    -5.583951480463     5.271546000143     1.007825032070
           H         -3.738474830359    -3.186951480463     4.673546000143     1.007825032070
           H         -2.311474830359    -3.195951480463     5.742546000143     1.007825032070
           H          2.854525169641     8.442048519537     3.737546000143     1.007825032070
           H          0.503525169641     8.438048519537     0.968546000143     1.007825032070
           H        -12.337474830359     2.140048519537     6.924546000143     1.007825032070
           H         -9.904474830359    -0.112951480463     4.940546000143     1.007825032070
           H          0.155525169641     5.881048519537    -4.745453999857     1.007825032070
           H          2.268525169641     5.307048519537    -1.726453999857     1.007825032070
           H          3.242525169641     4.370048519537     0.408546000143     1.007825032070
           H          2.032525169641     1.677048519537     0.567546000143     1.007825032070
           H          3.405525169641    -0.581951480463    -0.438453999857     1.007825032070
           H          2.370525169641    -3.483951480463    -5.305453999857     1.007825032070
           H         -0.076474830359    -4.147951480463    -6.505453999857     1.007825032070
           H         -3.522474830359    -4.916951480463    -8.120453999857     1.007825032070
           H         -2.297474830359    -5.529951480463     5.260546000143     1.007825032070
           H         -4.809474830359    -2.538951480463     6.717546000143     1.007825032070

  Running in c1 symmetry.

  Rotational constants: A =      0.00083  B =      0.00061  C =      0.00051 [cm^-1]
  Rotational constants: A =     24.83034  B =     18.39626  C =     15.29315 [MHz]
  Nuclear repulsion = 6201.543659593415214

  Charge       = 0
  Multiplicity = 1
  Electrons    = 398
  Nalpha       = 199
  Nbeta        = 199

  ==> Algorithm <==

  SCF Algorithm Type is DF.
  DIIS enabled.
  MOM disabled.
  Fractional occupation disabled.
  Guess Type is SAD.
  Energy threshold   = 1.00e-06
  Density threshold  = 1.00e-06
  Integral threshold = 0.00e+00

  ==> Primary Basis <==

  Basis Set: AUG-CC-PVTZ
    Blend: AUG-CC-PVTZ
    Number of shells: 1182
    Number of basis function: 3542
    Number of Cartesian functions: 4105
    Spherical Harmonics?: true
    Max angular momentum: 3

   => Loading Basis Set <=

    Name: (AUG-CC-PVTZ AUX)
    Role: JKFIT
    Keyword: DF_BASIS_SCF
    atoms 1, 9, 13, 21, 25, 33, 41, 48                                                          entry N          line   224 file /theoryfs2/ds/schieber/Gits/mspsi4/objdir3/stage/usr/local/psi4/share/psi4/basis/aug-cc-pvtz-jkfit.gbs 
    atoms 2-3, 5-6, 10-11, 14-15, 17-18, 22-23, 26-27, 29-30, 34-35, 37-38, 42-43, 45-47, 49-50 entry C          line   162 file /theoryfs2/ds/schieber/Gits/mspsi4/objdir3/stage/usr/local/psi4/share/psi4/basis/aug-cc-pvtz-jkfit.gbs 
    atoms 4, 7-8, 12, 16, 19-20, 24, 28, 31-32, 36, 39-40, 44, 51                               entry O          line   286 file /theoryfs2/ds/schieber/Gits/mspsi4/objdir3/stage/usr/local/psi4/share/psi4/basis/aug-cc-pvtz-jkfit.gbs 
    atoms 52-103                                                                                entry H          line    70 file /theoryfs2/ds/schieber/Gits/mspsi4/objdir3/stage/usr/local/psi4/share/psi4/basis/aug-cc-pvtz-jkfit.gbs 

  ==> Pre-Iterations <==

   -------------------------------------------------------
    Irrep   Nso     Nmo     Nalpha   Nbeta   Ndocc  Nsocc
   -------------------------------------------------------
     A       3542    3542       0       0       0       0
   -------------------------------------------------------
    Total    3542    3542     199     199     199       0
   -------------------------------------------------------

  ==> Integral Setup <==

  ==> DFJK: Density-Fitted J/K Matrices <==

    J tasked:                  Yes
    K tasked:                  Yes
    wK tasked:                  No
    OpenMP threads:              6
    Integrals threads:           6
    Memory (MB):             42915
    Algorithm:                Disk
    Integral Cache:           NONE
    Schwarz Cutoff:          1E-12
    Fitting Condition:       1E-12

   => Auxiliary Basis Set <=

  Basis Set: (AUG-CC-PVTZ AUX)
    Blend: AUG-CC-PVTZ-JKFIT
    Number of shells: 2258
    Number of basis function: 7696
    Number of Cartesian functions: 9541
    Spherical Harmonics?: true
    Max angular momentum: 4

  Minimum eigenvalue in the overlap matrix is 8.5387492557E-07.
  Using Symmetric Orthogonalization.

  SCF Guess: Superposition of Atomic Densities via on-the-fly atomic UHF.

  ==> Iterations <==

                           Total Energy        Delta E     RMS |[F,P]|

   @DF-RHF iter   0: -2704.05023477262375   -2.70405e+03   9.20196e-03 
   @DF-RHF iter   1: -2685.12968448225183    1.89206e+01   1.15686e-03 
   @DF-RHF iter   2: -2686.31285262669053   -1.18317e+00   7.74239e-04 DIIS
   @DF-RHF iter   3: -2686.78612571425356   -4.73273e-01   1.96471e-04 DIIS
   @DF-RHF iter   4: -2686.85108492344989   -6.49592e-02   6.62337e-05 DIIS
   @DF-RHF iter   5: -2686.86109316515422   -1.00082e-02   2.78634e-05 DIIS
   @DF-RHF iter   6: -2686.86403959065774   -2.94643e-03   1.42574e-05 DIIS
   @DF-RHF iter   7: -2686.86503257482900   -9.92984e-04   6.90520e-06 DIIS
   @DF-RHF iter   8: -2686.86527099676641   -2.38422e-04   3.38867e-06 DIIS
   @DF-RHF iter   9: -2686.86533126011454   -6.02633e-05   1.46743e-06 DIIS
   @DF-RHF iter  10: -2686.86534271754226   -1.14574e-05   6.30746e-07 DIIS
   @DF-RHF iter  11: -2686.86534471178265   -1.99424e-06   2.41142e-07 DIIS
   @DF-RHF iter  12: -2686.86534497308276   -2.61300e-07   1.10107e-07 DIIS

  ==> Post-Iterations <==

    Orbital Energies (a.u.)
    -----------------------

    Doubly Occupied:                                                      

       1A    -20.656381     2A    -20.646069     3A    -20.635775  
       4A    -20.602733     5A    -20.584659     6A    -20.567346  
       7A    -20.561477     8A    -20.560256     9A    -20.559763  
      10A    -20.559744    11A    -20.553322    12A    -20.552455  
      13A    -20.540659    14A    -20.518491    15A    -20.515389  
      16A    -20.513723    17A    -15.599277    18A    -15.559770  
      19A    -15.551878    20A    -15.548634    21A    -15.547177  
      22A    -15.545025    23A    -15.542757    24A    -15.541424  
      25A    -11.413272    26A    -11.396829    27A    -11.380001  
      28A    -11.365083    29A    -11.358052    30A    -11.343137  
      31A    -11.340631    32A    -11.337845    33A    -11.336529  
      34A    -11.334814    35A    -11.331888    36A    -11.331237  
      37A    -11.310680    38A    -11.296660    39A    -11.288963  
      40A    -11.287232    41A    -11.281238    42A    -11.277335  
      43A    -11.276430    44A    -11.275175    45A    -11.274734  
      46A    -11.264681    47A    -11.260113    48A    -11.236531  
      49A    -11.231326    50A    -11.229947    51A    -11.218826  
      52A     -1.528415    53A     -1.524733    54A     -1.511240  
      55A     -1.498311    56A     -1.417103    57A     -1.395787  
      58A     -1.391962    59A     -1.389879    60A     -1.383589  
      61A     -1.378503    62A     -1.373478    63A     -1.368479  
      64A     -1.357703    65A     -1.357280    66A     -1.337622  
      67A     -1.331712    68A     -1.254831    69A     -1.214173  
      70A     -1.200994    71A     -1.191511    72A     -1.187819  
      73A     -1.184597    74A     -1.182733    75A     -1.171299  
      76A     -1.098869    77A     -1.085898    78A     -1.055617  
      79A     -1.052206    80A     -1.041789    81A     -0.978410  
      82A     -0.970431    83A     -0.969771    84A     -0.969546  
      85A     -0.964309    86A     -0.949958    87A     -0.935797  
      88A     -0.935609    89A     -0.929377    90A     -0.911039  
      91A     -0.906756    92A     -0.887226    93A     -0.873727  
      94A     -0.831253    95A     -0.812322    96A     -0.809714  
      97A     -0.802704    98A     -0.799395    99A     -0.797153  
     100A     -0.796676   101A     -0.793821   102A     -0.766551  
     103A     -0.752588   104A     -0.747643   105A     -0.733684  
     106A     -0.730286   107A     -0.718454   108A     -0.717809  
     109A     -0.714161   110A     -0.709012   111A     -0.704949  
     112A     -0.701155   113A     -0.701053   114A     -0.698629  
     115A     -0.695927   116A     -0.694352   117A     -0.692134  
     118A     -0.687738   119A     -0.685042   120A     -0.683500  
     121A     -0.680723   122A     -0.667471   123A     -0.665688  
     124A     -0.663006   125A     -0.660566   126A     -0.658654  
     127A     -0.656303   128A     -0.655574   129A     -0.652233  
     130A     -0.651326   131A     -0.643316   132A     -0.641086  
     133A     -0.638486   134A     -0.630910   135A     -0.630808  
     136A     -0.629631   137A     -0.629475   138A     -0.628524  
     139A     -0.628198   140A     -0.627992   141A     -0.620687  
     142A     -0.612810   143A     -0.611362   144A     -0.607378  
     145A     -0.599845   146A     -0.591759   147A     -0.589757  
     148A     -0.577261   149A     -0.576781   150A     -0.573537  
     151A     -0.573240   152A     -0.565210   153A     -0.562645  
     154A     -0.561026   155A     -0.556897   156A     -0.556881  
     157A     -0.554248   158A     -0.551220   159A     -0.543706  
     160A     -0.537085   161A     -0.532292   162A     -0.531289  
     163A     -0.528338   164A     -0.526189   165A     -0.523835  
     166A     -0.519046   167A     -0.515843   168A     -0.515143  
     169A     -0.504728   170A     -0.503225   171A     -0.492161  
     172A     -0.491691   173A     -0.488225   174A     -0.482009  
     175A     -0.481803   176A     -0.474109   177A     -0.466077  
     178A     -0.462006   179A     -0.456805   180A     -0.455110  
     181A     -0.451194   182A     -0.447207   183A     -0.446612  
     184A     -0.444336   185A     -0.443143   186A     -0.442713  
     187A     -0.439206   188A     -0.434791   189A     -0.433444  
     190A     -0.433077   191A     -0.429315   192A     -0.407829  
     193A     -0.386006   194A     -0.381240   195A     -0.375749  
     196A     -0.374654   197A     -0.374023   198A     -0.371225  
     199A     -0.365612  

    Virtual:                                                              

     200A      0.001085   201A      0.014126   202A      0.014979  
     203A      0.019920   204A      0.021883   205A      0.024414  
     206A      0.026516   207A      0.027544   208A      0.029975  
     209A      0.033228   210A      0.034849   211A      0.036837  
     212A      0.037437   213A      0.039024   214A      0.040312  
     215A      0.041051   216A      0.043008   217A      0.043734  
     218A      0.044890   219A      0.049451   220A      0.050753  
     221A      0.051949   222A      0.052398   223A      0.054468  
     224A      0.055247   225A      0.055622   226A      0.058803  
     227A      0.060068   228A      0.062347   229A      0.063766  
     230A      0.064508   231A      0.065214   232A      0.065805  
     233A      0.066953   234A      0.069286   235A      0.069775  
     236A      0.071610   237A      0.074021   238A      0.076309  
     239A      0.077727   240A      0.079267   241A      0.080391  
     242A      0.081454   243A      0.082201   244A      0.084309  
     245A      0.085366   246A      0.086605   247A      0.088099  
     248A      0.088427   249A      0.090620   250A      0.091903  
     251A      0.092622   252A      0.094583   253A      0.095929  
     254A      0.097814   255A      0.098939   256A      0.099659  
     257A      0.100824   258A      0.101204   259A      0.103527  
     260A      0.103729   261A      0.104405   262A      0.106409  
     263A      0.107121   264A      0.108656   265A      0.110452  
     266A      0.111123   267A      0.112110   268A      0.113173  
     269A      0.114347   270A      0.115449   271A      0.116451  
     272A      0.117589   273A      0.118901   274A      0.119856  
     275A      0.121222   276A      0.121821   277A      0.123790  
     278A      0.126008   279A      0.126514   280A      0.127253  
     281A      0.128538   282A      0.129981   283A      0.130752  
     284A      0.131277   285A      0.132155   286A      0.132891  
     287A      0.134036   288A      0.134511   289A      0.134736  
     290A      0.135823   291A      0.137182   292A      0.137614  
     293A      0.138776   294A      0.139996   295A      0.140937  
     296A      0.141767   297A      0.142103   298A      0.143633  
     299A      0.144341   300A      0.144912   301A      0.145480  
     302A      0.146852   303A      0.147566   304A      0.149531  
     305A      0.149986   306A      0.151091   307A      0.151621  
     308A      0.152587   309A      0.154472   310A      0.155242  
     311A      0.156664   312A      0.157240   313A      0.157890  
     314A      0.159076   315A      0.160213   316A      0.161791  
     317A      0.163665   318A      0.164260   319A      0.164609  
     320A      0.165214   321A      0.166600   322A      0.167928  
     323A      0.168577   324A      0.169404   325A      0.170489  
     326A      0.172007   327A      0.172988   328A      0.173906  
     329A      0.174703   330A      0.176374   331A      0.176683  
     332A      0.178914   333A      0.180054   334A      0.180440  
     335A      0.181441   336A      0.183395   337A      0.183915  
     338A      0.185043   339A      0.186532   340A      0.187282  
     341A      0.188468   342A      0.189706   343A      0.189970  
     344A      0.190247   345A      0.192183   346A      0.193150  
     347A      0.194262   348A      0.196543   349A      0.196685  
     350A      0.197650   351A      0.199257   352A      0.199536  
     353A      0.199595   354A      0.201595   355A      0.203649  
     356A      0.203909   357A      0.204893   358A      0.205737  
     359A      0.207485   360A      0.209401   361A      0.210569  
     362A      0.211003   363A      0.211060   364A      0.214632  
     365A      0.215321   366A      0.216981   367A      0.218020  
     368A      0.219306   369A      0.221139   370A      0.222141  
     371A      0.222949   372A      0.223565   373A      0.225113  
     374A      0.225680   375A      0.227089   376A      0.229042  
     377A      0.229468   378A      0.231020   379A      0.231781  
     380A      0.234771   381A      0.235437   382A      0.236428  
     383A      0.237614   384A      0.238356   385A      0.239780  
     386A      0.240745   387A      0.242226   388A      0.242888  
     389A      0.244423   390A      0.245068   391A      0.245942  
     392A      0.247825   393A      0.249059   394A      0.249288  
     395A      0.250585   396A      0.252399   397A      0.253209  
     398A      0.254029   399A      0.255366   400A      0.256805  
     401A      0.257511   402A      0.257705   403A      0.260530  
     404A      0.261896   405A      0.262827   406A      0.264257  
     407A      0.265283   408A      0.265592   409A      0.268166  
     410A      0.269485   411A      0.270323   412A      0.271298  
     413A      0.274259   414A      0.275646   415A      0.276020  
     416A      0.276336   417A      0.278471   418A      0.279565  
     419A      0.279847   420A      0.281483   421A      0.281872  
     422A      0.282899   423A      0.283394   424A      0.284219  
     425A      0.285679   426A      0.287401   427A      0.288723  
     428A      0.289132   429A      0.290046   430A      0.291831  
     431A      0.292355   432A      0.293252   433A      0.294240  
     434A      0.294601   435A      0.297541   436A      0.297960  
     437A      0.298544   438A      0.298842   439A      0.300391  
     440A      0.301119   441A      0.301891   442A      0.302918  
     443A      0.303927   444A      0.306458   445A      0.307279  
     446A      0.308130   447A      0.308933   448A      0.309293  
     449A      0.310207   450A      0.310916   451A      0.312583  
     452A      0.314369   453A      0.314879   454A      0.315981  
     455A      0.316718   456A      0.317992   457A      0.318860  
     458A      0.321186   459A      0.321826   460A      0.322144  
     461A      0.323220   462A      0.323941   463A      0.324217  
     464A      0.325336   465A      0.326772   466A      0.326992  
     467A      0.328007   468A      0.328637   469A      0.329894  
     470A      0.330651   471A      0.331833   472A      0.332950  
     473A      0.333543   474A      0.334936   475A      0.336131  
     476A      0.337299   477A      0.337984   478A      0.338740  
     479A      0.339891   480A      0.341310   481A      0.342260  
     482A      0.342755   483A      0.343762   484A      0.344101  
     485A      0.345531   486A      0.346631   487A      0.347157  
     488A      0.349197   489A      0.350006   490A      0.350240  
     491A      0.351597   492A      0.353295   493A      0.354180  
     494A      0.355313   495A      0.355887   496A      0.356681  
     497A      0.357224   498A      0.358623   499A      0.359093  
     500A      0.361331   501A      0.362492   502A      0.363311  
     503A      0.364377   504A      0.365218   505A      0.366151  
     506A      0.366475   507A      0.367998   508A      0.368151  
     509A      0.369331   510A      0.370330   511A      0.371035  
     512A      0.371849   513A      0.372459   514A      0.374629  
     515A      0.375191   516A      0.375723   517A      0.376087  
     518A      0.376740   519A      0.379182   520A      0.379408  
     521A      0.379987   522A      0.380534   523A      0.381372  
     524A      0.382089   525A      0.384079   526A      0.385085  
     527A      0.386484   528A      0.387325   529A      0.388316  
     530A      0.389043   531A      0.389790   532A      0.390252  
     533A      0.391339   534A      0.393063   535A      0.393629  
     536A      0.395000   537A      0.396359   538A      0.397014  
     539A      0.397783   540A      0.399524   541A      0.399582  
     542A      0.400713   543A      0.401569   544A      0.402203  
     545A      0.403361   546A      0.404760   547A      0.405468  
     548A      0.406861   549A      0.407950   550A      0.408905  
     551A      0.409265   552A      0.410279   553A      0.410405  
     554A      0.411762   555A      0.413053   556A      0.414333  
     557A      0.415104   558A      0.416242   559A      0.418150  
     560A      0.419503   561A      0.420034   562A      0.421180  
     563A      0.422540   564A      0.422800   565A      0.423543  
     566A      0.424232   567A      0.424886   568A      0.426347  
     569A      0.427321   570A      0.428563   571A      0.429030  
     572A      0.430279   573A      0.431210   574A      0.432656  
     575A      0.434174   576A      0.434382   577A      0.435380  
     578A      0.436599   579A      0.438082   580A      0.439065  
     581A      0.440018   582A      0.440960   583A      0.441490  
     584A      0.442194   585A      0.443275   586A      0.443813  
     587A      0.445582   588A      0.446395   589A      0.446946  
     590A      0.448406   591A      0.448937   592A      0.450887  
     593A      0.451191   594A      0.451906   595A      0.452987  
     596A      0.454371   597A      0.455368   598A      0.456088  
     599A      0.457482   600A      0.459128   601A      0.460001  
     602A      0.461178   603A      0.461679   604A      0.463429  
     605A      0.464183   606A      0.464987   607A      0.467376  
     608A      0.467989   609A      0.469172   610A      0.470454  
     611A      0.470672   612A      0.471550   613A      0.471840  
     614A      0.472914   615A      0.475118   616A      0.476351  
     617A      0.478852   618A      0.479664   619A      0.480190  
     620A      0.481399   621A      0.482003   622A      0.483736  
     623A      0.484957   624A      0.486231   625A      0.486808  
     626A      0.487915   627A      0.488768   628A      0.489044  
     629A      0.489456   630A      0.491304   631A      0.492685  
     632A      0.495147   633A      0.496179   634A      0.497237  
     635A      0.497574   636A      0.498847   637A      0.500170  
     638A      0.500630   639A      0.501575   640A      0.502616  
     641A      0.503235   642A      0.504673   643A      0.505780  
     644A      0.506633   645A      0.507187   646A      0.508394  
     647A      0.509775   648A      0.510350   649A      0.511463  
     650A      0.512065   651A      0.513834   652A      0.514057  
     653A      0.514913   654A      0.515095   655A      0.517465  
     656A      0.517973   657A      0.520463   658A      0.520883  
     659A      0.521220   660A      0.522087   661A      0.522907  
     662A      0.523548   663A      0.524750   664A      0.526257  
     665A      0.526988   666A      0.528950   667A      0.529567  
     668A      0.531385   669A      0.533303   670A      0.533837  
     671A      0.534985   672A      0.535667   673A      0.536901  
     674A      0.537246   675A      0.538686   676A      0.539663  
     677A      0.540091   678A      0.540461   679A      0.542096  
     680A      0.543327   681A      0.543926   682A      0.544717  
     683A      0.545128   684A      0.546872   685A      0.547334  
     686A      0.549517   687A      0.550873   688A      0.551709  
     689A      0.552547   690A      0.553978   691A      0.554569  
     692A      0.556148   693A      0.557128   694A      0.557870  
     695A      0.558886   696A      0.559884   697A      0.560908  
     698A      0.562421   699A      0.564048   700A      0.565406  
     701A      0.566263   702A      0.567630   703A      0.569443  
     704A      0.571138   705A      0.572769   706A      0.573134  
     707A      0.573493   708A      0.575373   709A      0.575640  
     710A      0.577310   711A      0.578999   712A      0.579413  
     713A      0.580134   714A      0.580678   715A      0.585091  
     716A      0.586324   717A      0.587459   718A      0.588817  
     719A      0.589541   720A      0.590975   721A      0.591613  
     722A      0.592623   723A      0.593794   724A      0.595165  
     725A      0.596777   726A      0.597070   727A      0.598493  
     728A      0.599601   729A      0.600116   730A      0.600471  
     731A      0.603092   732A      0.605109   733A      0.605625  
     734A      0.606925   735A      0.608470   736A      0.608823  
     737A      0.610644   738A      0.612841   739A      0.613082  
     740A      0.613904   741A      0.614766   742A      0.615212  
     743A      0.618406   744A      0.618855   745A      0.620716  
     746A      0.621279   747A      0.622344   748A      0.623848  
     749A      0.625935   750A      0.626403   751A      0.627242  
     752A      0.628852   753A      0.629461   754A      0.629761  
     755A      0.631586   756A      0.632059   757A      0.634857  
     758A      0.636095   759A      0.636785   760A      0.639856  
     761A      0.641125   762A      0.643328   763A      0.644078  
     764A      0.645008   765A      0.645760   766A      0.646902  
     767A      0.647618   768A      0.648385   769A      0.649947  
     770A      0.650158   771A      0.652037   772A      0.653662  
     773A      0.654895   774A      0.656731   775A      0.657088  
     776A      0.659100   777A      0.659939   778A      0.660625  
     779A      0.661481   780A      0.662610   781A      0.663169  
     782A      0.664250   783A      0.667895   784A      0.668156  
     785A      0.668876   786A      0.669428   787A      0.670123  
     788A      0.671355   789A      0.672259   790A      0.674771  
     791A      0.675566   792A      0.677220   793A      0.678329  
     794A      0.679261   795A      0.679818   796A      0.681398  
     797A      0.681760   798A      0.682642   799A      0.684263  
     800A      0.684931   801A      0.686580   802A      0.687468  
     803A      0.688273   804A      0.690443   805A      0.691039  
     806A      0.693413   807A      0.694668   808A      0.696021  
     809A      0.696852   810A      0.698694   811A      0.699426  
     812A      0.700568   813A      0.701386   814A      0.702653  
     815A      0.703993   816A      0.706533   817A      0.707077  
     818A      0.709758   819A      0.710019   820A      0.710538  
     821A      0.712151   822A      0.713565   823A      0.714100  
     824A      0.714579   825A      0.715563   826A      0.717006  
     827A      0.717332   828A      0.720068   829A      0.721120  
     830A      0.722383   831A      0.723271   832A      0.725303  
     833A      0.725584   834A      0.729299   835A      0.731068  
     836A      0.731827   837A      0.732574   838A      0.734278  
     839A      0.735282   840A      0.736276   841A      0.739261  
     842A      0.739948   843A      0.743242   844A      0.744545  
     845A      0.745724   846A      0.746470   847A      0.748745  
     848A      0.749595   849A      0.752510   850A      0.753620  
     851A      0.756450   852A      0.756581   853A      0.760059  
     854A      0.760235   855A      0.761504   856A      0.764486  
     857A      0.766496   858A      0.767031   859A      0.768402  
     860A      0.770328   861A      0.771490   862A      0.774079  
     863A      0.775675   864A      0.776457   865A      0.777596  
     866A      0.779678   867A      0.780787   868A      0.784117  
     869A      0.784924   870A      0.786030   871A      0.787585  
     872A      0.788922   873A      0.790204   874A      0.792664  
     875A      0.792919   876A      0.794496   877A      0.795580  
     878A      0.797970   879A      0.799157   880A      0.800925  
     881A      0.801954   882A      0.803818   883A      0.805486  
     884A      0.806492   885A      0.807497   886A      0.807950  
     887A      0.809533   888A      0.810360   889A      0.812405  
     890A      0.814381   891A      0.815298   892A      0.816693  
     893A      0.818253   894A      0.820033   895A      0.821495  
     896A      0.823402   897A      0.824212   898A      0.827172  
     899A      0.828244   900A      0.828499   901A      0.831514  
     902A      0.831927   903A      0.833129   904A      0.833503  
     905A      0.834730   906A      0.835712   907A      0.837427  
     908A      0.838151   909A      0.839423   910A      0.841049  
     911A      0.843687   912A      0.845555   913A      0.847118  
     914A      0.847258   915A      0.847904   916A      0.849405  
     917A      0.851030   918A      0.851470   919A      0.853278  
     920A      0.854677   921A      0.857916   922A      0.858714  
     923A      0.860224   924A      0.861324   925A      0.863069  
     926A      0.864021   927A      0.865366   928A      0.866745  
     929A      0.868181   930A      0.869109   931A      0.869644  
     932A      0.870629   933A      0.872195   934A      0.872666  
     935A      0.874319   936A      0.876156   937A      0.877208  
     938A      0.878218   939A      0.879359   940A      0.879776  
     941A      0.881556   942A      0.884304   943A      0.886135  
     944A      0.887042   945A      0.888548   946A      0.888961  
     947A      0.889683   948A      0.892318   949A      0.894087  
     950A      0.894451   951A      0.894771   952A      0.897592  
     953A      0.898480   954A      0.899985   955A      0.900622  
     956A      0.903466   957A      0.904004   958A      0.907391  
     959A      0.908466   960A      0.909897   961A      0.911248  
     962A      0.912800   963A      0.912957   964A      0.914594  
     965A      0.914610   966A      0.916496   967A      0.917101  
     968A      0.918907   969A      0.918956   970A      0.921214  
     971A      0.921747   972A      0.923446   973A      0.924071  
     974A      0.925115   975A      0.927401   976A      0.928973  
     977A      0.929165   978A      0.930733   979A      0.931378  
     980A      0.932774   981A      0.933968   982A      0.935478  
     983A      0.935763   984A      0.936217   985A      0.937890  
     986A      0.939445   987A      0.941220   988A      0.941758  
     989A      0.943803   990A      0.944665   991A      0.945133  
     992A      0.946674   993A      0.947550   994A      0.948465  
     995A      0.948907   996A      0.949531   997A      0.951234  
     998A      0.951780   999A      0.953077  1000A      0.955132  
    1001A      0.955296  1002A      0.957245  1003A      0.958653  
    1004A      0.960772  1005A      0.961589  1006A      0.962511  
    1007A      0.963918  1008A      0.965389  1009A      0.966022  
    1010A      0.969249  1011A      0.969835  1012A      0.970088  
    1013A      0.972064  1014A      0.973350  1015A      0.973579  
    1016A      0.974145  1017A      0.974862  1018A      0.975627  
    1019A      0.976764  1020A      0.978165  1021A      0.978361  
    1022A      0.979681  1023A      0.980383  1024A      0.982894  
    1025A      0.983159  1026A      0.984601  1027A      0.986557  
    1028A      0.986928  1029A      0.988200  1030A      0.988756  
    1031A      0.990736  1032A      0.991650  1033A      0.993449  
    1034A      0.994611  1035A      0.995793  1036A      0.996448  
    1037A      0.997725  1038A      0.999556  1039A      1.000644  
    1040A      1.000803  1041A      1.001511  1042A      1.002280  
    1043A      1.004019  1044A      1.005566  1045A      1.006503  
    1046A      1.006979  1047A      1.007544  1048A      1.008198  
    1049A      1.009016  1050A      1.010215  1051A      1.011466  
    1052A      1.012772  1053A      1.014823  1054A      1.015940  
    1055A      1.017763  1056A      1.018705  1057A      1.019315  
    1058A      1.019562  1059A      1.020119  1060A      1.020919  
    1061A      1.022321  1062A      1.024190  1063A      1.026045  
    1064A      1.027702  1065A      1.029454  1066A      1.031763  
    1067A      1.032660  1068A      1.033979  1069A      1.035086  
    1070A      1.036020  1071A      1.038072  1072A      1.038830  
    1073A      1.039445  1074A      1.039557  1075A      1.041106  
    1076A      1.042424  1077A      1.042963  1078A      1.045181  
    1079A      1.045689  1080A      1.046780  1081A      1.048695  
    1082A      1.049054  1083A      1.049901  1084A      1.050881  
    1085A      1.051340  1086A      1.052572  1087A      1.054634  
    1088A      1.055140  1089A      1.055496  1090A      1.056439  
    1091A      1.059106  1092A      1.059940  1093A      1.062139  
    1094A      1.063167  1095A      1.063339  1096A      1.064931  
    1097A      1.065609  1098A      1.066507  1099A      1.069016  
    1100A      1.070269  1101A      1.070657  1102A      1.072252  
    1103A      1.073886  1104A      1.075716  1105A      1.076404  
    1106A      1.079795  1107A      1.081224  1108A      1.082155  
    1109A      1.082634  1110A      1.083087  1111A      1.084317  
    1112A      1.085919  1113A      1.086331  1114A      1.086900  
    1115A      1.089360  1116A      1.090145  1117A      1.090786  
    1118A      1.091663  1119A      1.092811  1120A      1.094719  
    1121A      1.095053  1122A      1.096093  1123A      1.096338  
    1124A      1.099234  1125A      1.101508  1126A      1.103639  
    1127A      1.103930  1128A      1.105374  1129A      1.107789  
    1130A      1.109303  1131A      1.110653  1132A      1.111045  
    1133A      1.113702  1134A      1.114251  1135A      1.114425  
    1136A      1.115797  1137A      1.116730  1138A      1.119342  
    1139A      1.119759  1140A      1.120527  1141A      1.121506  
    1142A      1.121948  1143A      1.122869  1144A      1.124270  
    1145A      1.125882  1146A      1.126931  1147A      1.129190  
    1148A      1.130050  1149A      1.131832  1150A      1.132147  
    1151A      1.132770  1152A      1.134263  1153A      1.135341  
    1154A      1.136339  1155A      1.138149  1156A      1.139157  
    1157A      1.140806  1158A      1.142816  1159A      1.144223  
    1160A      1.144963  1161A      1.146004  1162A      1.147036  
    1163A      1.147919  1164A      1.148852  1165A      1.150149  
    1166A      1.151456  1167A      1.152518  1168A      1.153578  
    1169A      1.155244  1170A      1.156729  1171A      1.157834  
    1172A      1.158635  1173A      1.160540  1174A      1.161921  
    1175A      1.162764  1176A      1.163970  1177A      1.166090  
    1178A      1.167091  1179A      1.167710  1180A      1.169114  
    1181A      1.169902  1182A      1.170675  1183A      1.172238  
    1184A      1.173654  1185A      1.175296  1186A      1.177053  
    1187A      1.179511  1188A      1.179691  1189A      1.180518  
    1190A      1.182681  1191A      1.183982  1192A      1.184888  
    1193A      1.186041  1194A      1.187331  1195A      1.189331  
    1196A      1.190499  1197A      1.191611  1198A      1.192160  
    1199A      1.193355  1200A      1.194176  1201A      1.195797  
    1202A      1.197930  1203A      1.198573  1204A      1.199749  
    1205A      1.203160  1206A      1.203223  1207A      1.205037  
    1208A      1.205933  1209A      1.207663  1210A      1.208368  
    1211A      1.209275  1212A      1.210324  1213A      1.212356  
    1214A      1.213440  1215A      1.214273  1216A      1.215041  
    1217A      1.216602  1218A      1.217930  1219A      1.219047  
    1220A      1.219711  1221A      1.220858  1222A      1.222142  
    1223A      1.222328  1224A      1.222975  1225A      1.224902  
    1226A      1.227895  1227A      1.228438  1228A      1.230635  
    1229A      1.232406  1230A      1.233531  1231A      1.233705  
    1232A      1.235221  1233A      1.236571  1234A      1.237880  
    1235A      1.238810  1236A      1.241124  1237A      1.242398  
    1238A      1.243101  1239A      1.244304  1240A      1.245053  
    1241A      1.247181  1242A      1.249757  1243A      1.252893  
    1244A      1.253390  1245A      1.253829  1246A      1.254476  
    1247A      1.255389  1248A      1.257974  1249A      1.258826  
    1250A      1.260132  1251A      1.261210  1252A      1.261901  
    1253A      1.262501  1254A      1.263887  1255A      1.266519  
    1256A      1.267024  1257A      1.268329  1258A      1.270498  
    1259A      1.271904  1260A      1.274013  1261A      1.275103  
    1262A      1.276453  1263A      1.277711  1264A      1.278511  
    1265A      1.281886  1266A      1.283120  1267A      1.283470  
    1268A      1.284545  1269A      1.286819  1270A      1.288968  
    1271A      1.289139  1272A      1.289665  1273A      1.290631  
    1274A      1.292476  1275A      1.293699  1276A      1.295455  
    1277A      1.297042  1278A      1.297208  1279A      1.298340  
    1280A      1.300161  1281A      1.302214  1282A      1.303654  
    1283A      1.305702  1284A      1.306809  1285A      1.307427  
    1286A      1.309043  1287A      1.310554  1288A      1.311164  
    1289A      1.312313  1290A      1.313001  1291A      1.313578  
    1292A      1.315297  1293A      1.316474  1294A      1.317760  
    1295A      1.319132  1296A      1.321161  1297A      1.324134  
    1298A      1.325110  1299A      1.326616  1300A      1.327026  
    1301A      1.330433  1302A      1.332600  1303A      1.333498  
    1304A      1.335105  1305A      1.336324  1306A      1.338415  
    1307A      1.339755  1308A      1.342250  1309A      1.344900  
    1310A      1.345333  1311A      1.347339  1312A      1.348033  
    1313A      1.349291  1314A      1.350539  1315A      1.353017  
    1316A      1.354874  1317A      1.357520  1318A      1.359878  
    1319A      1.361775  1320A      1.362720  1321A      1.364728  
    1322A      1.366190  1323A      1.366709  1324A      1.368896  
    1325A      1.369631  1326A      1.372060  1327A      1.373246  
    1328A      1.374581  1329A      1.378978  1330A      1.379436  
    1331A      1.381348  1332A      1.381724  1333A      1.384046  
    1334A      1.385631  1335A      1.387062  1336A      1.389170  
    1337A      1.391636  1338A      1.392309  1339A      1.394999  
    1340A      1.396442  1341A      1.396789  1342A      1.397710  
    1343A      1.398171  1344A      1.398723  1345A      1.400070  
    1346A      1.401577  1347A      1.404288  1348A      1.405651  
    1349A      1.406377  1350A      1.407929  1351A      1.409242  
    1352A      1.411343  1353A      1.412493  1354A      1.414153  
    1355A      1.415741  1356A      1.419398  1357A      1.421069  
    1358A      1.422814  1359A      1.424370  1360A      1.425577  
    1361A      1.426392  1362A      1.427515  1363A      1.428452  
    1364A      1.431110  1365A      1.432124  1366A      1.433454  
    1367A      1.435982  1368A      1.437124  1369A      1.437502  
    1370A      1.438304  1371A      1.439500  1372A      1.441968  
    1373A      1.442624  1374A      1.445441  1375A      1.447022  
    1376A      1.449048  1377A      1.451510  1378A      1.453151  
    1379A      1.453965  1380A      1.454722  1381A      1.456226  
    1382A      1.457496  1383A      1.458834  1384A      1.462043  
    1385A      1.464476  1386A      1.465566  1387A      1.466913  
    1388A      1.468600  1389A      1.469066  1390A      1.469880  
    1391A      1.471277  1392A      1.474228  1393A      1.474872  
    1394A      1.476170  1395A      1.476981  1396A      1.479893  
    1397A      1.480381  1398A      1.483218  1399A      1.483816  
    1400A      1.484626  1401A      1.486041  1402A      1.489486  
    1403A      1.491282  1404A      1.492399  1405A      1.493481  
    1406A      1.494279  1407A      1.495580  1408A      1.497549  
    1409A      1.498015  1410A      1.499371  1411A      1.501676  
    1412A      1.503102  1413A      1.503574  1414A      1.505569  
    1415A      1.507247  1416A      1.508901  1417A      1.511735  
    1418A      1.513966  1419A      1.514753  1420A      1.516494  
    1421A      1.518003  1422A      1.519184  1423A      1.520494  
    1424A      1.520711  1425A      1.521800  1426A      1.524797  
    1427A      1.525695  1428A      1.528195  1429A      1.530535  
    1430A      1.533828  1431A      1.535148  1432A      1.535736  
    1433A      1.536654  1434A      1.537014  1435A      1.537978  
    1436A      1.540231  1437A      1.541422  1438A      1.543448  
    1439A      1.544505  1440A      1.545522  1441A      1.546018  
    1442A      1.546795  1443A      1.549917  1444A      1.551745  
    1445A      1.555239  1446A      1.556361  1447A      1.557980  
    1448A      1.559635  1449A      1.561354  1450A      1.561653  
    1451A      1.563795  1452A      1.564620  1453A      1.565144  
    1454A      1.566208  1455A      1.567636  1456A      1.568172  
    1457A      1.569343  1458A      1.572555  1459A      1.574750  
    1460A      1.576332  1461A      1.578290  1462A      1.578718  
    1463A      1.580305  1464A      1.580479  1465A      1.581778  
    1466A      1.583296  1467A      1.585298  1468A      1.586289  
    1469A      1.587476  1470A      1.589404  1471A      1.591105  
    1472A      1.591999  1473A      1.592654  1474A      1.593262  
    1475A      1.596373  1476A      1.599733  1477A      1.601184  
    1478A      1.601823  1479A      1.603156  1480A      1.603709  
    1481A      1.606282  1482A      1.608521  1483A      1.610475  
    1484A      1.611224  1485A      1.612013  1486A      1.612688  
    1487A      1.614053  1488A      1.617104  1489A      1.619332  
    1490A      1.620077  1491A      1.621291  1492A      1.623270  
    1493A      1.624363  1494A      1.625298  1495A      1.627704  
    1496A      1.628535  1497A      1.630980  1498A      1.631634  
    1499A      1.635573  1500A      1.637112  1501A      1.637805  
    1502A      1.639595  1503A      1.641999  1504A      1.643381  
    1505A      1.645412  1506A      1.646258  1507A      1.646740  
    1508A      1.649042  1509A      1.651527  1510A      1.652916  
    1511A      1.655075  1512A      1.655580  1513A      1.657967  
    1514A      1.660790  1515A      1.662880  1516A      1.663843  
    1517A      1.664512  1518A      1.665938  1519A      1.668253  
    1520A      1.668498  1521A      1.669214  1522A      1.674213  
    1523A      1.675306  1524A      1.676418  1525A      1.677000  
    1526A      1.678397  1527A      1.681677  1528A      1.682427  
    1529A      1.683656  1530A      1.685527  1531A      1.686787  
    1532A      1.688077  1533A      1.690370  1534A      1.691735  
    1535A      1.694676  1536A      1.696539  1537A      1.699395  
    1538A      1.701769  1539A      1.702414  1540A      1.705499  
    1541A      1.706244  1542A      1.708188  1543A      1.709352  
    1544A      1.710569  1545A      1.711843  1546A      1.713617  
    1547A      1.714970  1548A      1.715912  1549A      1.717884  
    1550A      1.719309  1551A      1.719961  1552A      1.722167  
    1553A      1.722940  1554A      1.724940  1555A      1.726944  
    1556A      1.727934  1557A      1.729140  1558A      1.730103  
    1559A      1.730859  1560A      1.734182  1561A      1.735556  
    1562A      1.737257  1563A      1.738329  1564A      1.740869  
    1565A      1.741356  1566A      1.743159  1567A      1.743718  
    1568A      1.743931  1569A      1.744877  1570A      1.747832  
    1571A      1.749610  1572A      1.749951  1573A      1.753312  
    1574A      1.754489  1575A      1.754672  1576A      1.757671  
    1577A      1.760169  1578A      1.761775  1579A      1.762467  
    1580A      1.764146  1581A      1.768041  1582A      1.770565  
    1583A      1.771399  1584A      1.772175  1585A      1.772296  
    1586A      1.776735  1587A      1.777103  1588A      1.777551  
    1589A      1.777848  1590A      1.779905  1591A      1.780564  
    1592A      1.781470  1593A      1.783990  1594A      1.787336  
    1595A      1.790475  1596A      1.791848  1597A      1.793655  
    1598A      1.796026  1599A      1.797583  1600A      1.798422  
    1601A      1.800959  1602A      1.801633  1603A      1.804075  
    1604A      1.805187  1605A      1.807234  1606A      1.808256  
    1607A      1.810343  1608A      1.811704  1609A      1.812315  
    1610A      1.813000  1611A      1.814451  1612A      1.816688  
    1613A      1.819081  1614A      1.820048  1615A      1.820879  
    1616A      1.822723  1617A      1.824555  1618A      1.824867  
    1619A      1.828529  1620A      1.831486  1621A      1.833529  
    1622A      1.834441  1623A      1.837318  1624A      1.838581  
    1625A      1.839738  1626A      1.842619  1627A      1.843635  
    1628A      1.846824  1629A      1.848720  1630A      1.849735  
    1631A      1.852560  1632A      1.853697  1633A      1.855356  
    1634A      1.856434  1635A      1.857355  1636A      1.860701  
    1637A      1.862037  1638A      1.863220  1639A      1.863515  
    1640A      1.867120  1641A      1.869627  1642A      1.870533  
    1643A      1.872547  1644A      1.875183  1645A      1.877499  
    1646A      1.877870  1647A      1.878579  1648A      1.879357  
    1649A      1.880042  1650A      1.883042  1651A      1.885245  
    1652A      1.888272  1653A      1.889157  1654A      1.890111  
    1655A      1.890652  1656A      1.893680  1657A      1.894048  
    1658A      1.895874  1659A      1.897168  1660A      1.898409  
    1661A      1.898597  1662A      1.902117  1663A      1.904740  
    1664A      1.905040  1665A      1.905982  1666A      1.907560  
    1667A      1.910081  1668A      1.913323  1669A      1.914285  
    1670A      1.917177  1671A      1.919401  1672A      1.921505  
    1673A      1.922282  1674A      1.924787  1675A      1.927662  
    1676A      1.929087  1677A      1.929851  1678A      1.931460  
    1679A      1.932717  1680A      1.935107  1681A      1.936448  
    1682A      1.939163  1683A      1.940261  1684A      1.942603  
    1685A      1.942988  1686A      1.944998  1687A      1.946000  
    1688A      1.946726  1689A      1.948691  1690A      1.952652  
    1691A      1.953113  1692A      1.956084  1693A      1.957653  
    1694A      1.958819  1695A      1.959902  1696A      1.962623  
    1697A      1.963579  1698A      1.964786  1699A      1.966574  
    1700A      1.968858  1701A      1.972431  1702A      1.974355  
    1703A      1.975273  1704A      1.976271  1705A      1.979268  
    1706A      1.980593  1707A      1.981911  1708A      1.983620  
    1709A      1.986017  1710A      1.987139  1711A      1.987575  
    1712A      1.988635  1713A      1.990489  1714A      1.991744  
    1715A      1.995079  1716A      1.996212  1717A      1.998440  
    1718A      2.000020  1719A      2.002746  1720A      2.005758  
    1721A      2.007066  1722A      2.010049  1723A      2.011892  
    1724A      2.013049  1725A      2.015038  1726A      2.017797  
    1727A      2.018880  1728A      2.024125  1729A      2.026791  
    1730A      2.028318  1731A      2.031554  1732A      2.033293  
    1733A      2.035410  1734A      2.036100  1735A      2.039374  
    1736A      2.041038  1737A      2.043360  1738A      2.044871  
    1739A      2.045060  1740A      2.046460  1741A      2.047794  
    1742A      2.049566  1743A      2.053425  1744A      2.057511  
    1745A      2.058986  1746A      2.061082  1747A      2.063043  
    1748A      2.065082  1749A      2.065647  1750A      2.066739  
    1751A      2.070889  1752A      2.071853  1753A      2.073652  
    1754A      2.073771  1755A      2.075338  1756A      2.078723  
    1757A      2.080718  1758A      2.082908  1759A      2.084885  
    1760A      2.087396  1761A      2.088408  1762A      2.089372  
    1763A      2.090221  1764A      2.091313  1765A      2.092705  
    1766A      2.094667  1767A      2.096964  1768A      2.097317  
    1769A      2.099020  1770A      2.101661  1771A      2.105170  
    1772A      2.106496  1773A      2.109036  1774A      2.114419  
    1775A      2.117194  1776A      2.118495  1777A      2.120236  
    1778A      2.124716  1779A      2.126155  1780A      2.127308  
    1781A      2.127854  1782A      2.129424  1783A      2.129499  
    1784A      2.131785  1785A      2.133500  1786A      2.134436  
    1787A      2.136334  1788A      2.138198  1789A      2.141834  
    1790A      2.143624  1791A      2.144747  1792A      2.145460  
    1793A      2.148457  1794A      2.149304  1795A      2.152511  
    1796A      2.156473  1797A      2.158518  1798A      2.159776  
    1799A      2.164103  1800A      2.165153  1801A      2.169898  
    1802A      2.172273  1803A      2.176407  1804A      2.178818  
    1805A      2.179255  1806A      2.180542  1807A      2.180635  
    1808A      2.182160  1809A      2.185157  1810A      2.185411  
    1811A      2.189996  1812A      2.191277  1813A      2.193905  
    1814A      2.196198  1815A      2.197172  1816A      2.199149  
    1817A      2.201960  1818A      2.204257  1819A      2.209442  
    1820A      2.210949  1821A      2.213263  1822A      2.214240  
    1823A      2.216134  1824A      2.218181  1825A      2.220278  
    1826A      2.223814  1827A      2.224404  1828A      2.227118  
    1829A      2.230637  1830A      2.232876  1831A      2.235282  
    1832A      2.239771  1833A      2.240109  1834A      2.243874  
    1835A      2.244086  1836A      2.244912  1837A      2.247129  
    1838A      2.248334  1839A      2.251174  1840A      2.251559  
    1841A      2.252922  1842A      2.253760  1843A      2.257527  
    1844A      2.261100  1845A      2.263583  1846A      2.266902  
    1847A      2.268330  1848A      2.271296  1849A      2.272234  
    1850A      2.276080  1851A      2.277713  1852A      2.278915  
    1853A      2.279987  1854A      2.282793  1855A      2.286354  
    1856A      2.289163  1857A      2.292077  1858A      2.295337  
    1859A      2.296712  1860A      2.300745  1861A      2.303700  
    1862A      2.305582  1863A      2.306882  1864A      2.309718  
    1865A      2.313822  1866A      2.314311  1867A      2.315591  
    1868A      2.318165  1869A      2.318706  1870A      2.321624  
    1871A      2.326607  1872A      2.328225  1873A      2.329991  
    1874A      2.333677  1875A      2.336063  1876A      2.336437  
    1877A      2.337417  1878A      2.340718  1879A      2.342500  
    1880A      2.343691  1881A      2.344880  1882A      2.349030  
    1883A      2.349458  1884A      2.350551  1885A      2.353070  
    1886A      2.354844  1887A      2.359118  1888A      2.361482  
    1889A      2.363222  1890A      2.366032  1891A      2.368198  
    1892A      2.368698  1893A      2.371994  1894A      2.378053  
    1895A      2.380554  1896A      2.382463  1897A      2.385035  
    1898A      2.387185  1899A      2.388431  1900A      2.390470  
    1901A      2.392484  1902A      2.394967  1903A      2.396977  
    1904A      2.398356  1905A      2.403368  1906A      2.405156  
    1907A      2.406897  1908A      2.409203  1909A      2.410808  
    1910A      2.411327  1911A      2.411854  1912A      2.413329  
    1913A      2.417297  1914A      2.420736  1915A      2.424514  
    1916A      2.427407  1917A      2.431108  1918A      2.432407  
    1919A      2.437419  1920A      2.438761  1921A      2.439065  
    1922A      2.439501  1923A      2.442259  1924A      2.446006  
    1925A      2.447840  1926A      2.450217  1927A      2.452642  
    1928A      2.453033  1929A      2.453495  1930A      2.458268  
    1931A      2.461262  1932A      2.463335  1933A      2.469782  
    1934A      2.471865  1935A      2.473870  1936A      2.476628  
    1937A      2.477809  1938A      2.481974  1939A      2.486823  
    1940A      2.488093  1941A      2.492096  1942A      2.494599  
    1943A      2.494717  1944A      2.496064  1945A      2.498483  
    1946A      2.498985  1947A      2.500990  1948A      2.501975  
    1949A      2.504209  1950A      2.505384  1951A      2.506462  
    1952A      2.507565  1953A      2.509966  1954A      2.512626  
    1955A      2.514928  1956A      2.517594  1957A      2.518111  
    1958A      2.519883  1959A      2.523673  1960A      2.524205  
    1961A      2.525321  1962A      2.530762  1963A      2.532724  
    1964A      2.534518  1965A      2.537557  1966A      2.538750  
    1967A      2.541557  1968A      2.543450  1969A      2.546805  
    1970A      2.547478  1971A      2.550525  1972A      2.553142  
    1973A      2.554099  1974A      2.555128  1975A      2.557048  
    1976A      2.558112  1977A      2.559692  1978A      2.563145  
    1979A      2.565990  1980A      2.568019  1981A      2.570688  
    1982A      2.571824  1983A      2.573683  1984A      2.576574  
    1985A      2.578340  1986A      2.579109  1987A      2.579692  
    1988A      2.582304  1989A      2.586840  1990A      2.589376  
    1991A      2.593236  1992A      2.593951  1993A      2.595261  
    1994A      2.597266  1995A      2.598667  1996A      2.602222  
    1997A      2.604886  1998A      2.606837  1999A      2.609755  
    2000A      2.611600  2001A      2.613758  2002A      2.613919  
    2003A      2.618024  2004A      2.621058  2005A      2.624685  
    2006A      2.625027  2007A      2.626982  2008A      2.631218  
    2009A      2.633418  2010A      2.634907  2011A      2.638849  
    2012A      2.641001  2013A      2.641842  2014A      2.642715  
    2015A      2.643600  2016A      2.644348  2017A      2.645119  
    2018A      2.645958  2019A      2.651269  2020A      2.651722  
    2021A      2.655420  2022A      2.657509  2023A      2.660174  
    2024A      2.664635  2025A      2.665415  2026A      2.669512  
    2027A      2.669751  2028A      2.670790  2029A      2.671159  
    2030A      2.674828  2031A      2.675705  2032A      2.680249  
    2033A      2.681824  2034A      2.683013  2035A      2.686366  
    2036A      2.688377  2037A      2.691994  2038A      2.694891  
    2039A      2.695886  2040A      2.699490  2041A      2.702642  
    2042A      2.703755  2043A      2.705595  2044A      2.706129  
    2045A      2.707018  2046A      2.707658  2047A      2.709608  
    2048A      2.711811  2049A      2.714250  2050A      2.718076  
    2051A      2.723240  2052A      2.727996  2053A      2.730674  
    2054A      2.736210  2055A      2.737686  2056A      2.740097  
    2057A      2.740641  2058A      2.744774  2059A      2.746319  
    2060A      2.749693  2061A      2.751595  2062A      2.755221  
    2063A      2.756014  2064A      2.757798  2065A      2.761243  
    2066A      2.762997  2067A      2.764385  2068A      2.768239  
    2069A      2.770389  2070A      2.773774  2071A      2.775505  
    2072A      2.776965  2073A      2.779472  2074A      2.782354  
    2075A      2.783046  2076A      2.787010  2077A      2.789083  
    2078A      2.792892  2079A      2.797012  2080A      2.799367  
    2081A      2.804916  2082A      2.805665  2083A      2.806653  
    2084A      2.808939  2085A      2.812617  2086A      2.814616  
    2087A      2.816397  2088A      2.818714  2089A      2.818732  
    2090A      2.824003  2091A      2.825531  2092A      2.829327  
    2093A      2.831357  2094A      2.831698  2095A      2.833632  
    2096A      2.835020  2097A      2.838802  2098A      2.843725  
    2099A      2.846755  2100A      2.848645  2101A      2.854025  
    2102A      2.854658  2103A      2.856188  2104A      2.857893  
    2105A      2.862143  2106A      2.865509  2107A      2.866104  
    2108A      2.867727  2109A      2.871367  2110A      2.872126  
    2111A      2.874067  2112A      2.875652  2113A      2.878433  
    2114A      2.884077  2115A      2.890417  2116A      2.892761  
    2117A      2.893173  2118A      2.896874  2119A      2.901864  
    2120A      2.903244  2121A      2.908422  2122A      2.909043  
    2123A      2.909963  2124A      2.913225  2125A      2.914818  
    2126A      2.915693  2127A      2.919189  2128A      2.919877  
    2129A      2.921941  2130A      2.924329  2131A      2.928196  
    2132A      2.931140  2133A      2.933831  2134A      2.935700  
    2135A      2.938257  2136A      2.938815  2137A      2.943050  
    2138A      2.946505  2139A      2.946721  2140A      2.950072  
    2141A      2.952606  2142A      2.954828  2143A      2.957203  
    2144A      2.963362  2145A      2.965449  2146A      2.968215  
    2147A      2.972065  2148A      2.979006  2149A      2.981317  
    2150A      2.984818  2151A      2.986624  2152A      2.987003  
    2153A      2.987852  2154A      2.992865  2155A      2.996217  
    2156A      2.997662  2157A      3.001643  2158A      3.007578  
    2159A      3.009980  2160A      3.014491  2161A      3.016329  
    2162A      3.018834  2163A      3.023943  2164A      3.025604  
    2165A      3.029034  2166A      3.031408  2167A      3.037482  
    2168A      3.041669  2169A      3.044192  2170A      3.045169  
    2171A      3.049296  2172A      3.058716  2173A      3.063208  
    2174A      3.067260  2175A      3.069592  2176A      3.071460  
    2177A      3.073709  2178A      3.074872  2179A      3.076652  
    2180A      3.079910  2181A      3.084658  2182A      3.085391  
    2183A      3.094042  2184A      3.095830  2185A      3.100483  
    2186A      3.102692  2187A      3.104172  2188A      3.110101  
    2189A      3.111501  2190A      3.114478  2191A      3.122120  
    2192A      3.128455  2193A      3.131177  2194A      3.134118  
    2195A      3.139271  2196A      3.142564  2197A      3.144020  
    2198A      3.148997  2199A      3.150810  2200A      3.155463  
    2201A      3.158063  2202A      3.159111  2203A      3.161402  
    2204A      3.165424  2205A      3.166169  2206A      3.169848  
    2207A      3.172934  2208A      3.178618  2209A      3.184617  
    2210A      3.185266  2211A      3.194147  2212A      3.194381  
    2213A      3.197067  2214A      3.200116  2215A      3.200756  
    2216A      3.206860  2217A      3.207975  2218A      3.212555  
    2219A      3.214900  2220A      3.223913  2221A      3.231348  
    2222A      3.234200  2223A      3.240872  2224A      3.242026  
    2225A      3.245595  2226A      3.248198  2227A      3.249504  
    2228A      3.254239  2229A      3.257246  2230A      3.268112  
    2231A      3.274794  2232A      3.281810  2233A      3.282670  
    2234A      3.293186  2235A      3.297805  2236A      3.301621  
    2237A      3.304133  2238A      3.313468  2239A      3.314862  
    2240A      3.317728  2241A      3.319879  2242A      3.332212  
    2243A      3.335818  2244A      3.339089  2245A      3.349793  
    2246A      3.352770  2247A      3.358762  2248A      3.361188  
    2249A      3.368802  2250A      3.372816  2251A      3.376606  
    2252A      3.385106  2253A      3.393612  2254A      3.399651  
    2255A      3.402894  2256A      3.407333  2257A      3.407734  
    2258A      3.409390  2259A      3.411517  2260A      3.422879  
    2261A      3.423454  2262A      3.431241  2263A      3.431327  
    2264A      3.436002  2265A      3.438929  2266A      3.447290  
    2267A      3.451716  2268A      3.456990  2269A      3.461744  
    2270A      3.464091  2271A      3.469829  2272A      3.472934  
    2273A      3.476783  2274A      3.482107  2275A      3.486227  
    2276A      3.486762  2277A      3.488275  2278A      3.496435  
    2279A      3.498446  2280A      3.500428  2281A      3.501551  
    2282A      3.506071  2283A      3.510255  2284A      3.513257  
    2285A      3.514805  2286A      3.519104  2287A      3.519422  
    2288A      3.519847  2289A      3.523835  2290A      3.527162  
    2291A      3.533452  2292A      3.534130  2293A      3.537541  
    2294A      3.539500  2295A      3.541401  2296A      3.542773  
    2297A      3.543707  2298A      3.547116  2299A      3.550281  
    2300A      3.555225  2301A      3.561332  2302A      3.563538  
    2303A      3.567000  2304A      3.568100  2305A      3.573575  
    2306A      3.575936  2307A      3.580352  2308A      3.583271  
    2309A      3.587523  2310A      3.591239  2311A      3.595262  
    2312A      3.597206  2313A      3.598940  2314A      3.606887  
    2315A      3.607289  2316A      3.608768  2317A      3.610520  
    2318A      3.615977  2319A      3.620682  2320A      3.626930  
    2321A      3.632886  2322A      3.634346  2323A      3.639339  
    2324A      3.640788  2325A      3.643512  2326A      3.643794  
    2327A      3.646122  2328A      3.647380  2329A      3.649163  
    2330A      3.657265  2331A      3.659131  2332A      3.660001  
    2333A      3.664660  2334A      3.665842  2335A      3.667559  
    2336A      3.670081  2337A      3.672461  2338A      3.673543  
    2339A      3.675185  2340A      3.676980  2341A      3.677658  
    2342A      3.683196  2343A      3.685754  2344A      3.686541  
    2345A      3.692947  2346A      3.698452  2347A      3.701549  
    2348A      3.702831  2349A      3.704192  2350A      3.706366  
    2351A      3.711592  2352A      3.714815  2353A      3.718403  
    2354A      3.721755  2355A      3.723326  2356A      3.728678  
    2357A      3.729564  2358A      3.731342  2359A      3.733364  
    2360A      3.734586  2361A      3.739037  2362A      3.742763  
    2363A      3.746100  2364A      3.747523  2365A      3.747953  
    2366A      3.753662  2367A      3.759161  2368A      3.759735  
    2369A      3.761525  2370A      3.768210  2371A      3.771314  
    2372A      3.773677  2373A      3.773898  2374A      3.776817  
    2375A      3.779744  2376A      3.781987  2377A      3.783751  
    2378A      3.786744  2379A      3.790140  2380A      3.793617  
    2381A      3.797197  2382A      3.800255  2383A      3.802918  
    2384A      3.804054  2385A      3.806493  2386A      3.810140  
    2387A      3.812007  2388A      3.814397  2389A      3.818943  
    2390A      3.821997  2391A      3.828026  2392A      3.831804  
    2393A      3.833822  2394A      3.839245  2395A      3.841933  
    2396A      3.844397  2397A      3.846098  2398A      3.847325  
    2399A      3.851444  2400A      3.853552  2401A      3.855148  
    2402A      3.857253  2403A      3.859077  2404A      3.864507  
    2405A      3.869063  2406A      3.870406  2407A      3.872368  
    2408A      3.876842  2409A      3.879899  2410A      3.881743  
    2411A      3.883264  2412A      3.884583  2413A      3.886560  
    2414A      3.887705  2415A      3.894586  2416A      3.894751  
    2417A      3.898268  2418A      3.898686  2419A      3.899251  
    2420A      3.900973  2421A      3.902959  2422A      3.906188  
    2423A      3.908424  2424A      3.912933  2425A      3.918398  
    2426A      3.919967  2427A      3.920818  2428A      3.922162  
    2429A      3.922941  2430A      3.925725  2431A      3.927199  
    2432A      3.933513  2433A      3.935170  2434A      3.937261  
    2435A      3.941271  2436A      3.943576  2437A      3.948701  
    2438A      3.949356  2439A      3.952018  2440A      3.954326  
    2441A      3.959017  2442A      3.959178  2443A      3.962145  
    2444A      3.963339  2445A      3.968011  2446A      3.971273  
    2447A      3.973581  2448A      3.974664  2449A      3.977600  
    2450A      3.983137  2451A      3.986298  2452A      3.987574  
    2453A      3.990480  2454A      3.993376  2455A      3.994069  
    2456A      3.996383  2457A      3.998316  2458A      4.002408  
    2459A      4.003366  2460A      4.005411  2461A      4.010803  
    2462A      4.012150  2463A      4.016918  2464A      4.022078  
    2465A      4.023250  2466A      4.023807  2467A      4.027299  
    2468A      4.030076  2469A      4.031424  2470A      4.035808  
    2471A      4.037404  2472A      4.039807  2473A      4.041291  
    2474A      4.046856  2475A      4.048808  2476A      4.050620  
    2477A      4.054949  2478A      4.056825  2479A      4.057327  
    2480A      4.060297  2481A      4.061672  2482A      4.062754  
    2483A      4.064379  2484A      4.065434  2485A      4.066061  
    2486A      4.069037  2487A      4.071505  2488A      4.072633  
    2489A      4.076541  2490A      4.079010  2491A      4.080390  
    2492A      4.081235  2493A      4.085351  2494A      4.086349  
    2495A      4.088758  2496A      4.089070  2497A      4.093870  
    2498A      4.097540  2499A      4.100266  2500A      4.102237  
    2501A      4.106354  2502A      4.107285  2503A      4.113875  
    2504A      4.116523  2505A      4.119318  2506A      4.122972  
    2507A      4.124622  2508A      4.127030  2509A      4.128189  
    2510A      4.131603  2511A      4.132798  2512A      4.134451  
    2513A      4.136220  2514A      4.138863  2515A      4.140941  
    2516A      4.142172  2517A      4.147609  2518A      4.150764  
    2519A      4.151534  2520A      4.157009  2521A      4.159026  
    2522A      4.159421  2523A      4.161255  2524A      4.164282  
    2525A      4.164797  2526A      4.166751  2527A      4.168583  
    2528A      4.171384  2529A      4.172854  2530A      4.176220  
    2531A      4.178940  2532A      4.184766  2533A      4.185353  
    2534A      4.185799  2535A      4.187170  2536A      4.191828  
    2537A      4.195888  2538A      4.200624  2539A      4.203371  
    2540A      4.203804  2541A      4.207398  2542A      4.208362  
    2543A      4.210177  2544A      4.214028  2545A      4.218721  
    2546A      4.222792  2547A      4.224165  2548A      4.225158  
    2549A      4.226668  2550A      4.230316  2551A      4.232925  
    2552A      4.235542  2553A      4.237777  2554A      4.241452  
    2555A      4.244890  2556A      4.246810  2557A      4.248860  
    2558A      4.249389  2559A      4.250985  2560A      4.253162  
    2561A      4.255959  2562A      4.256504  2563A      4.258548  
    2564A      4.261287  2565A      4.262748  2566A      4.265175  
    2567A      4.268500  2568A      4.273825  2569A      4.277057  
    2570A      4.277433  2571A      4.277834  2572A      4.279299  
    2573A      4.281135  2574A      4.282615  2575A      4.284478  
    2576A      4.287551  2577A      4.288266  2578A      4.291512  
    2579A      4.294031  2580A      4.294523  2581A      4.297320  
    2582A      4.298469  2583A      4.305709  2584A      4.307476  
    2585A      4.308126  2586A      4.309000  2587A      4.311117  
    2588A      4.315203  2589A      4.317812  2590A      4.319685  
    2591A      4.321205  2592A      4.322564  2593A      4.324214  
    2594A      4.326148  2595A      4.328416  2596A      4.330023  
    2597A      4.334332  2598A      4.334984  2599A      4.336109  
    2600A      4.338837  2601A      4.341677  2602A      4.342686  
    2603A      4.343531  2604A      4.345585  2605A      4.345767  
    2606A      4.349141  2607A      4.349752  2608A      4.351324  
    2609A      4.356479  2610A      4.360576  2611A      4.363924  
    2612A      4.365092  2613A      4.372203  2614A      4.372619  
    2615A      4.374558  2616A      4.378893  2617A      4.378922  
    2618A      4.379713  2619A      4.382809  2620A      4.386235  
    2621A      4.388340  2622A      4.394275  2623A      4.394953  
    2624A      4.399796  2625A      4.400222  2626A      4.404135  
    2627A      4.407277  2628A      4.408037  2629A      4.411594  
    2630A      4.411697  2631A      4.414298  2632A      4.416017  
    2633A      4.418384  2634A      4.419260  2635A      4.419585  
    2636A      4.420317  2637A      4.427174  2638A      4.427560  
[...]
    2723A      4.647020  2724A      4.649183  2725A      4.651304  
    2726A      4.654619  2727A      4.657129  2728A      4.660737  
    2729A      4.662473  2730A      4.662590  2731A      4.666229  
    2732A      4.674815  2733A      4.678405  2734A      4.680476  
    2735A      4.682903  2736A      4.686409  2737A      4.688719  
    2738A      4.692067  2739A      4.694300  2740A      4.695216  
    2741A      4.699434  2742A      4.702131  2743A      4.709202  
    2744A      4.709589  2745A      4.714215  2746A      4.717780  
    2747A      4.721710  2748A      4.724834  2749A      4.727241  
    2750A      4.730479  2751A      4.730697  2752A      4.731944  
    2753A      4.738824  2754A      4.740126  2755A      4.743103  
    2756A      4.744034  2757A      4.744952  2758A      4.746174  
    2759A      4.748614  2760A      4.752545  2761A      4.753338  
    2762A      4.754794  2763A      4.756324  2764A      4.757102  
    2765A      4.760088  2766A      4.764781  2767A      4.767440  
    2768A      4.770760  2769A      4.773047  2770A      4.782108  
    2771A      4.783463  2772A      4.786452  2773A      4.792491  
    2774A      4.794917  2775A      4.796702  2776A      4.800130  
    2777A      4.802289  2778A      4.803868  2779A      4.805864  
    2780A      4.810509  2781A      4.811952  2782A      4.814299  
    2783A      4.816129  2784A      4.820873  2785A      4.821298  
    2786A      4.824767  2787A      4.825040  2788A      4.826816  
    2789A      4.828003  2790A      4.828375  2791A      4.835763  
    2792A      4.837818  2793A      4.838769  2794A      4.840724  
    2795A      4.843642  2796A      4.847052  2797A      4.851046  
    2798A      4.852334  2799A      4.859760  2800A      4.864111  
    2801A      4.866605  2802A      4.867229  2803A      4.870523  
    2804A      4.872190  2805A      4.873640  2806A      4.876005  
    2807A      4.876326  2808A      4.879746  2809A      4.890172  
    2810A      4.893096  2811A      4.895731  2812A      4.897534  
    2813A      4.899454  2814A      4.900471  2815A      4.901394  
    2816A      4.903554  2817A      4.905850  2818A      4.906402  
    2819A      4.909175  2820A      4.910969  2821A      4.917914  
    2822A      4.919302  2823A      4.920325  2824A      4.924226  
    2825A      4.932008  2826A      4.935140  2827A      4.936274  
    2828A      4.938240  2829A      4.939143  2830A      4.944059  
    2831A      4.945259  2832A      4.946999  2833A      4.950626  
    2834A      4.954104  2835A      4.954691  2836A      4.956613  
    2837A      4.960616  2838A      4.961911  2839A      4.965303  
    2840A      4.969422  2841A      4.975921  2842A      4.979737  
    2843A      4.981867  2844A      4.985339  2845A      4.987625  
    2846A      4.989748  2847A      4.993528  2848A      4.995632  
    2849A      4.998111  2850A      5.001625  2851A      5.003271  
    2852A      5.008327  2853A      5.012607  2854A      5.014212  
    2855A      5.015295  2856A      5.018270  2857A      5.021955  
    2858A      5.024010  2859A      5.027591  2860A      5.028019  
    2861A      5.029407  2862A      5.033160  2863A      5.034589  
    2864A      5.037556  2865A      5.039612  2866A      5.041304  
    2867A      5.046913  2868A      5.050043  2869A      5.051101  
    2870A      5.053582  2871A      5.055399  2872A      5.057757  
    2873A      5.058633  2874A      5.061375  2875A      5.064732  
    2876A      5.065639  2877A      5.068741  2878A      5.071720  
    2879A      5.075224  2880A      5.083361  2881A      5.084968  
    2882A      5.088589  2883A      5.090847  2884A      5.091714  
    2885A      5.094994  2886A      5.097558  2887A      5.101095  
    2888A      5.101801  2889A      5.102724  2890A      5.111884  
    2891A      5.115084  2892A      5.117138  2893A      5.121650  
    2894A      5.125355  2895A      5.129755  2896A      5.132804  
    2897A      5.134885  2898A      5.135171  2899A      5.137124  
    2900A      5.138669  2901A      5.140159  2902A      5.145778  
    2903A      5.149453  2904A      5.152742  2905A      5.154631  
    2906A      5.159474  2907A      5.161902  2908A      5.162423  
    2909A      5.168488  2910A      5.170241  2911A      5.174813  
    2912A      5.175931  2913A      5.178537  2914A      5.184259  
    2915A      5.188167  2916A      5.190406  2917A      5.194504  
    2918A      5.196781  2919A      5.200340  2920A      5.203540  
    2921A      5.206578  2922A      5.214807  2923A      5.216099  
    2924A      5.217851  2925A      5.225383  2926A      5.227596  
    2927A      5.228632  2928A      5.232494  2929A      5.232586  
    2930A      5.233635  2931A      5.236981  2932A      5.239407  
    2933A      5.242357  2934A      5.244375  2935A      5.249957  
    2936A      5.254798  2937A      5.257724  2938A      5.259040  
    2939A      5.265247  2940A      5.268799  2941A      5.270392  
    2942A      5.271482  2943A      5.277153  2944A      5.278129  
    2945A      5.280767  2946A      5.286568  2947A      5.288403  
    2948A      5.288427  2949A      5.289816  2950A      5.294823  
    2951A      5.299777  2952A      5.300625  2953A      5.304388  
    2954A      5.310813  2955A      5.312357  2956A      5.313565  
    2957A      5.320576  2958A      5.324623  2959A      5.325902  
    2960A      5.329130  2961A      5.331888  2962A      5.334010  
    2963A      5.335669  2964A      5.336189  2965A      5.340975  
    2966A      5.343870  2967A      5.344177  2968A      5.349824  
    2969A      5.351895  2970A      5.352151  2971A      5.354643  
    2972A      5.355619  2973A      5.357751  2974A      5.359587  
    2975A      5.363621  2976A      5.365231  2977A      5.366245  
    2978A      5.370974  2979A      5.375328  2980A      5.376289  
    2981A      5.378819  2982A      5.381798  2983A      5.384921  
    2984A      5.388695  2985A      5.390546  2986A      5.397618  
    2987A      5.398255  2988A      5.400230  2989A      5.402950  
    2990A      5.407378  2991A      5.409578  2992A      5.413637  
    2993A      5.415984  2994A      5.420308  2995A      5.427320  
    2996A      5.427668  2997A      5.432495  2998A      5.434535  
    2999A      5.439144  3000A      5.443468  3001A      5.444762  
    3002A      5.449246  3003A      5.452532  3004A      5.454615  
    3005A      5.455278  3006A      5.457135  3007A      5.460468  
    3008A      5.461990  3009A      5.471200  3010A      5.474149  
    3011A      5.477782  3012A      5.480830  3013A      5.486847  
    3014A      5.487560  3015A      5.491087  3016A      5.491295  
    3017A      5.495176  3018A      5.496377  3019A      5.498261  
    3020A      5.504925  3021A      5.509530  3022A      5.514177  
    3023A      5.516368  3024A      5.520786  3025A      5.528649  
    3026A      5.531854  3027A      5.536536  3028A      5.537971  
    3029A      5.544043  3030A      5.547290  3031A      5.549065  
    3032A      5.552129  3033A      5.557852  3034A      5.560046  
    3035A      5.566034  3036A      5.571471  3037A      5.573844  
    3038A      5.574819  3039A      5.582145  3040A      5.582375  
    3041A      5.584580  3042A      5.587874  3043A      5.589520  
    3044A      5.591413  3045A      5.595418  3046A      5.597902  
    3047A      5.600514  3048A      5.603524  3049A      5.605586  
    3050A      5.609828  3051A      5.613248  3052A      5.616054  
    3053A      5.618529  3054A      5.618907  3055A      5.621684  
    3056A      5.621913  3057A      5.627154  3058A      5.629101  
    3059A      5.632457  3060A      5.633817  3061A      5.638759  
    3062A      5.643385  3063A      5.651017  3064A      5.653180  
    3065A      5.654838  3066A      5.658873  3067A      5.659671  
    3068A      5.661650  3069A      5.662625  3070A      5.674634  
    3071A      5.675841  3072A      5.683232  3073A      5.684347  
    3074A      5.687363  3075A      5.697407  3076A      5.698352  
    3077A      5.698785  3078A      5.704340  3079A      5.709397  
    3080A      5.713857  3081A      5.720230  3082A      5.723443  
    3083A      5.728103  3084A      5.734342  3085A      5.737770  
    3086A      5.738931  3087A      5.742999  3088A      5.755181  
    3089A      5.758122  3090A      5.763441  3091A      5.766448  
    3092A      5.770379  3093A      5.772893  3094A      5.779909  
    3095A      5.781455  3096A      5.783832  3097A      5.786667  
    3098A      5.790589  3099A      5.792863  3100A      5.797265  
    3101A      5.808485  3102A      5.819160  3103A      5.820374  
    3104A      5.821474  3105A      5.822793  3106A      5.831949  
    3107A      5.837923  3108A      5.843691  3109A      5.855973  
    3110A      5.864339  3111A      5.878990  3112A      5.887870  
    3113A      5.893305  3114A      5.897202  3115A      5.899644  
    3116A      5.903879  3117A      5.909506  3118A      5.914033  
    3119A      5.917909  3120A      5.918372  3121A      5.925110  
    3122A      5.926916  3123A      5.933152  3124A      5.935404  
    3125A      5.937179  3126A      5.947510  3127A      5.954239  
    3128A      5.958535  3129A      5.962343  3130A      5.973190  
    3131A      5.984456  3132A      5.984850  3133A      6.002062  
    3134A      6.008136  3135A      6.008139  3136A      6.012240  
    3137A      6.016443  3138A      6.025179  3139A      6.026583  
    3140A      6.027609  3141A      6.033471  3142A      6.047017  
    3143A      6.047760  3144A      6.051578  3145A      6.054801  
    3146A      6.059089  3147A      6.059208  3148A      6.067444  
    3149A      6.074488  3150A      6.077213  3151A      6.083001  
    3152A      6.087932  3153A      6.088219  3154A      6.097685  
    3155A      6.101392  3156A      6.104204  3157A      6.108215  
    3158A      6.117900  3159A      6.119061  3160A      6.123620  
    3161A      6.140014  3162A      6.142135  3163A      6.146893  
    3164A      6.149557  3165A      6.152346  3166A      6.160295  
    3167A      6.162222  3168A      6.170198  3169A      6.179400  
    3170A      6.187071  3171A      6.192892  3172A      6.195359  
    3173A      6.197836  3174A      6.204425  3175A      6.206831  
    3176A      6.209819  3177A      6.210826  3178A      6.221669  
    3179A      6.224908  3180A      6.234522  3181A      6.236323  
    3182A      6.241232  3183A      6.246915  3184A      6.258194  
    3185A      6.261822  3186A      6.268210  3187A      6.269664  
    3188A      6.270384  3189A      6.276910  3190A      6.285692  
    3191A      6.286063  3192A      6.290149  3193A      6.294203  
    3194A      6.300882  3195A      6.311199  3196A      6.316835  
    3197A      6.320998  3198A      6.325029  3199A      6.326921  
    3200A      6.329084  3201A      6.343446  3202A      6.352939  
    3203A      6.365507  3204A      6.368554  3205A      6.373769  
    3206A      6.375302  3207A      6.380891  3208A      6.383146  
    3209A      6.385428  3210A      6.387986  3211A      6.389511  
    3212A      6.398751  3213A      6.404303  3214A      6.418114  
    3215A      6.433457  3216A      6.444742  3217A      6.448815  
    3218A      6.462800  3219A      6.465746  3220A      6.474527  
    3221A      6.477410  3222A      6.485381  3223A      6.488404  
    3224A      6.513994  3225A      6.515955  3226A      6.528710  
    3227A      6.551009  3228A      6.562830  3229A      6.569794  
    3230A      6.577983  3231A      6.591523  3232A      6.601315  
    3233A      6.603116  3234A      6.608223  3235A      6.614061  
    3236A      6.617879  3237A      6.619329  3238A      6.634710  
    3239A      6.644289  3240A      6.655011  3241A      6.657933  
    3242A      6.658668  3243A      6.662487  3244A      6.674686  
    3245A      6.675741  3246A      6.682265  3247A      6.682693  
    3248A      6.691123  3249A      6.691829  3250A      6.699434  
    3251A      6.708853  3252A      6.711611  3253A      6.722928  
    3254A      6.731362  3255A      6.734037  3256A      6.752455  
    3257A      6.754141  3258A      6.755345  3259A      6.770677  
    3260A      6.772585  3261A      6.777609  3262A      6.780836  
    3263A      6.787213  3264A      6.793017  3265A      6.799927  
    3266A      6.801398  3267A      6.812124  3268A      6.814954  
    3269A      6.815636  3270A      6.821932  3271A      6.834242  
    3272A      6.838342  3273A      6.840868  3274A      6.845016  
    3275A      6.851993  3276A      6.854076  3277A      6.858823  
    3278A      6.863907  3279A      6.867965  3280A      6.875626  
    3281A      6.876311  3282A      6.884314  3283A      6.889904  
    3284A      6.891110  3285A      6.898342  3286A      6.902102  
    3287A      6.904509  3288A      6.915236  3289A      6.927336  
    3290A      6.929858  3291A      6.931359  3292A      6.933741  
    3293A      6.935355  3294A      6.950001  3295A      6.960254  
    3296A      6.960993  3297A      6.962221  3298A      6.969864  
    3299A      6.972947  3300A      6.980152  3301A      6.982600  
    3302A      6.983583  3303A      6.986928  3304A      6.988117  
    3305A      6.994081  3306A      7.004249  3307A      7.007041  
    3308A      7.009436  3309A      7.015477  3310A      7.017254  
    3311A      7.017974  3312A      7.018451  3313A      7.024952  
    3314A      7.025161  3315A      7.027779  3316A      7.034558  
    3317A      7.049167  3318A      7.050093  3319A      7.057363  
    3320A      7.064737  3321A      7.066451  3322A      7.072320  
    3323A      7.079677  3324A      7.087326  3325A      7.088624  
    3326A      7.089209  3327A      7.090363  3328A      7.094775  
    3329A      7.098960  3330A      7.106490  3331A      7.107552  
    3332A      7.115976  3333A      7.120074  3334A      7.129753  
    3335A      7.137878  3336A      7.142419  3337A      7.154664  
    3338A      7.159814  3339A      7.162633  3340A      7.164607  
    3341A      7.180297  3342A      7.185602  3343A      7.201638  
    3344A      7.203265  3345A      7.204337  3346A      7.206797  
    3347A      7.215144  3348A      7.222211  3349A      7.225002  
    3350A      7.237547  3351A      7.240648  3352A      7.244286  
    3353A      7.251358  3354A      7.253416  3355A      7.257895  
    3356A      7.276104  3357A      7.281526  3358A      7.301508  
    3359A      7.312413  3360A      7.313924  3361A      7.328985  
    3362A      7.334128  3363A      7.347884  3364A      7.348342  
    3365A      7.350709  3366A      7.352048  3367A      7.353748  
    3368A      7.377620  3369A      7.378340  3370A      7.381850  
    3371A      7.384330  3372A      7.390058  3373A      7.397015  
    3374A      7.407904  3375A      7.410107  3376A      7.421363  
    3377A      7.429269  3378A      7.432682  3379A      7.434044  
    3380A      7.439939  3381A      7.445955  3382A      7.446864  
    3383A      7.454374  3384A      7.461936  3385A      7.473113  
    3386A      7.473540  3387A      7.481875  3388A      7.487427  
    3389A      7.493262  3390A      7.497571  3391A      7.505676  
    3392A      7.512419  3393A      7.517278  3394A      7.518481  
    3395A      7.527654  3396A      7.532990  3397A      7.543692  
    3398A      7.550446  3399A      7.553044  3400A      7.560237  
    3401A      7.560514  3402A      7.564975  3403A      7.570838  
    3404A      7.576538  3405A      7.587605  3406A      7.588722  
    3407A      7.601710  3408A      7.602873  3409A      7.605769  
    3410A      7.614094  3411A      7.617167  3412A      7.620577  
    3413A      7.627627  3414A      7.630860  3415A      7.642637  
    3416A      7.643261  3417A      7.650675  3418A      7.652293  
    3419A      7.665159  3420A      7.670195  3421A      7.671018  
    3422A      7.671665  3423A      7.671860  3424A      7.678040  
    3425A      7.689393  3426A      7.707293  3427A      7.707925  
    3428A      7.716925  3429A      7.729130  3430A      7.736699  
    3431A      7.750623  3432A      7.754529  3433A      7.763108  
    3434A      7.773008  3435A      7.775929  3436A      7.777396  
    3437A      7.786957  3438A      7.794879  3439A      7.797044  
    3440A      7.800627  3441A      7.805223  3442A      7.807211  
    3443A      7.807495  3444A      7.812545  3445A      7.818019  
    3446A      7.828525  3447A      7.839216  3448A      7.850365  
    3449A      7.872723  3450A      7.876063  3451A      7.882428  
    3452A      7.887053  3453A      7.890315  3454A      7.898435  
    3455A      7.909357  3456A      7.916839  3457A      7.926307  
    3458A      7.931986  3459A      7.945716  3460A      7.950662  
    3461A      7.952050  3462A      7.956067  3463A      7.956976  
    3464A      7.969534  3465A      7.971278  3466A      7.983862  
    3467A      7.988110  3468A      7.993850  3469A      7.994938  
    3470A      8.004411  3471A      8.015217  3472A      8.016774  
    3473A      8.019417  3474A      8.022095  3475A      8.049837  
    3476A      8.056355  3477A      8.065941  3478A      8.066366  
    3479A      8.083942  3480A      8.106081  3481A      8.204688  
    3482A      8.208680  3483A      8.251928  3484A      8.380728  
    3485A      8.400007  3486A      8.416223  3487A      8.430852  
    3488A      8.698784  3489A      8.750805  3490A      8.784297  
    3491A      8.793283  3492A     15.008342  3493A     15.080987  
    3494A     15.382408  3495A     15.641608  3496A     15.692721  
    3497A     15.717316  3498A     15.919827  3499A     15.994376  
    3500A     16.112447  3501A     16.122663  3502A     16.125315  
    3503A     16.310548  3504A     16.402769  3505A     16.623005  
    3506A     16.977755  3507A     17.062309  3508A     17.118655  
    3509A     17.157103  3510A     17.260796  3511A     17.269628  
    3512A     17.355125  3513A     17.534415  3514A     17.593584  
    3515A     17.789854  3516A     17.897523  3517A     18.009578  
    3518A     18.250381  3519A     18.348796  3520A     18.416557  
    3521A     18.616136  3522A     18.619969  3523A     18.631361  
    3524A     18.669591  3525A     18.688205  3526A     18.787822  
    3527A     18.880452  3528A     18.933927  3529A     18.979644  
    3530A     19.013414  3531A     19.833279  3532A     19.940261  
    3533A     19.973745  3534A     20.038348  3535A     20.129465  
    3536A     20.244499  3537A     20.365002  3538A     20.603692  
    3539A     20.664187  3540A     21.447478  3541A     21.957599  
    3542A     22.289353  

    Final Occupation by Irrep:
              A 
    DOCC [   199 ]

  Energy converged.

  @DF-RHF Final Energy: -2686.86534497308276

   => Energetics <=

    Nuclear Repulsion Energy =           6201.5436595934152137
    One-Electron Energy =              -16035.2871139081416914
    Two-Electron Energy =                7146.8781093416437216
    Total Energy =                      -2686.8653449730827560



Properties will be evaluated at   0.000000,   0.000000,   0.000000 Bohr

Properties computed using the SCF density matrix

  Nuclear Dipole Moment: (a.u.)
     X:   -36.4282      Y:   -12.7853      Z:    -6.2450

  Electronic Dipole Moment: (a.u.)
     X:    35.5012      Y:    11.2975      Z:     6.6897

  Dipole Moment: (a.u.)
     X:    -0.9270      Y:    -1.4878      Z:     0.4447     Total:     1.8085

  Dipole Moment: (Debye)
     X:    -2.3562      Y:    -3.7817      Z:     1.1303     Total:     4.5968


*** tstop() called on hex15 at Mon Mar  5 10:45:28 2018
Module time:
	user time   =   32335.62 seconds =     538.93 minutes
	system time =    1504.32 seconds =      25.07 minutes
	total time  =      23131 seconds =     385.52 minutes
Total time:
	user time   =   32335.62 seconds =     538.93 minutes
	system time =    1504.32 seconds =      25.07 minutes
	total time  =      23131 seconds =     385.52 minutes

*** Psi4 exiting successfully. Buy a developer a beer!
