
    -----------------------------------------------------------------------
          Psi4: An Open-Source Ab Initio Electronic Structure Package
                               Psi4 1.2a1.dev875 

                         Git: Rev {symm_JK} 0ea9481 dirty


    R. M. Parrish, L. A. Burns, D. G. A. Smith, A. C. Simmonett,
    A. E. DePrince III, E. G. Hohenstein, U. Bozkaya, A. Yu. Sokolov,
    R. Di Remigio, R. M. Richard, J. F. Gonthier, A. M. James,
    H. R. McAlexander, A. Kumar, M. Saitow, X. Wang, B. P. Pritchard,
    P. Verma, H. F. Schaefer III, K. Patkowski, R. A. King, E. F. Valeev,
    F. A. Evangelista, J. M. Turney, T. D. Crawford, and C. D. Sherrill,
    J. Chem. Theory Comput. 13(7) pp 3185--3197 (2017).
    (doi: 10.1021/acs.jctc.7b00174)

    -----------------------------------------------------------------------


    Psi4 started on: Thursday, 01 March 2018 05:43PM

    Process ID:  29603
    PSIDATADIR: /theoryfs2/ds/schieber/Gits/mspsi4/objdir3/stage/usr/local/psi4/share/psi4
    Memory:     500.0 MiB
    Threads:    6
    
  ==> Input File <==

--------------------------------------------------------------------------
memory 60 Gb

molecule protein_15 {
0 1
 N   17.407  27.054  -1.437
 C   17.227  26.751  -0.026
 C   18.555  26.446   0.653
 O   19.003  25.309   0.692
 C   16.258  25.572   0.084
 C   15.759  25.336   1.493
 O   16.399  25.780   2.453
 O   14.731  24.675   1.645
 H   17.860  26.421  -2.023
 H   16.724  27.595   0.500
 H   16.724  24.663  -0.337
 H   15.363  25.845  -0.519
 H   16.737  25.171   3.109
 H   16.947  27.858  -1.864
 H   19.060  27.284   1.155
}

set {
basis aug-cc-pvtz
scf_type df
guess sad
DF_SCF_TYPE DFJK
}

energy('HF')
--------------------------------------------------------------------------

  Memory set to  55.879 GiB by Python driver.

*** tstart() called on hex15
*** at Thu Mar  1 17:43:23 2018

   => Loading Basis Set <=

    Name: AUG-CC-PVTZ
    Role: ORBITAL
    Keyword: BASIS
    atoms 1        entry N          line   281 file /theoryfs2/ds/schieber/Gits/mspsi4/objdir3/stage/usr/local/psi4/share/psi4/basis/aug-cc-pvtz.gbs 
    atoms 2-3, 5-6 entry C          line   235 file /theoryfs2/ds/schieber/Gits/mspsi4/objdir3/stage/usr/local/psi4/share/psi4/basis/aug-cc-pvtz.gbs 
    atoms 4, 7-8   entry O          line   327 file /theoryfs2/ds/schieber/Gits/mspsi4/objdir3/stage/usr/local/psi4/share/psi4/basis/aug-cc-pvtz.gbs 
    atoms 9-15     entry H          line    36 file /theoryfs2/ds/schieber/Gits/mspsi4/objdir3/stage/usr/local/psi4/share/psi4/basis/aug-cc-pvtz.gbs 


         ---------------------------------------------------------
                                   SCF
            by Justin Turney, Rob Parrish, Andy Simmonett
                             and Daniel Smith
                              RHF Reference
                        6 Threads,  57220 MiB Core
         ---------------------------------------------------------

  ==> Geometry <==

    Molecular point group: c1
    Full point group: C1

    Geometry (in Angstrom), charge = 0, multiplicity = 1:

       Center              X                  Y                   Z               Mass       
    ------------   -----------------  -----------------  -----------------  -----------------
           N          0.493823883501     1.198273883779    -2.145822197285    14.003074004780
           C          0.313823883501     0.895273883779    -0.734822197285    12.000000000000
           C          1.641823883501     0.590273883779    -0.055822197285    12.000000000000
           O          2.089823883501    -0.546726116221    -0.016822197285    15.994914619560
           C         -0.655176116499    -0.283726116221    -0.624822197285    12.000000000000
           C         -1.154176116499    -0.519726116221     0.784177802715    12.000000000000
           O         -0.514176116499    -0.075726116221     1.744177802715    15.994914619560
           O         -2.182176116499    -1.180726116221     0.936177802715    15.994914619560
           H          0.946823883501     0.565273883779    -2.731822197285     1.007825032070
           H         -0.189176116499     1.739273883779    -0.208822197285     1.007825032070
           H         -0.189176116499    -1.192726116221    -1.045822197285     1.007825032070
           H         -1.550176116499    -0.010726116221    -1.227822197285     1.007825032070
           H         -0.176176116499    -0.684726116221     2.400177802715     1.007825032070
           H          0.033823883501     2.002273883779    -2.572822197285     1.007825032070
           H          2.146823883501     1.428273883779     0.446177802715     1.007825032070

  Running in c1 symmetry.

  Rotational constants: A =      0.10816  B =      0.04966  C =      0.03938 [cm^-1]
  Rotational constants: A =   3242.68280  B =   1488.90059  C =   1180.64051 [MHz]
  Nuclear repulsion =  383.662852131440786

  Charge       = 0
  Multiplicity = 1
  Electrons    = 62
  Nalpha       = 31
  Nbeta        = 31

  ==> Algorithm <==

  SCF Algorithm Type is DF.
  DIIS enabled.
  MOM disabled.
  Fractional occupation disabled.
  Guess Type is SAD.
  Energy threshold   = 1.00e-06
  Density threshold  = 1.00e-06
  Integral threshold = 0.00e+00

  ==> Primary Basis <==

  Basis Set: AUG-CC-PVTZ
    Blend: AUG-CC-PVTZ
    Number of shells: 175
    Number of basis function: 529
    Number of Cartesian functions: 615
    Spherical Harmonics?: true
    Max angular momentum: 3

   => Loading Basis Set <=

    Name: (AUG-CC-PVTZ AUX)
    Role: JKFIT
    Keyword: DF_BASIS_SCF
    atoms 1        entry N          line   224 file /theoryfs2/ds/schieber/Gits/mspsi4/objdir3/stage/usr/local/psi4/share/psi4/basis/aug-cc-pvtz-jkfit.gbs 
    atoms 2-3, 5-6 entry C          line   162 file /theoryfs2/ds/schieber/Gits/mspsi4/objdir3/stage/usr/local/psi4/share/psi4/basis/aug-cc-pvtz-jkfit.gbs 
    atoms 4, 7-8   entry O          line   286 file /theoryfs2/ds/schieber/Gits/mspsi4/objdir3/stage/usr/local/psi4/share/psi4/basis/aug-cc-pvtz-jkfit.gbs 
    atoms 9-15     entry H          line    70 file /theoryfs2/ds/schieber/Gits/mspsi4/objdir3/stage/usr/local/psi4/share/psi4/basis/aug-cc-pvtz-jkfit.gbs 

  ==> Pre-Iterations <==

   -------------------------------------------------------
    Irrep   Nso     Nmo     Nalpha   Nbeta   Ndocc  Nsocc
   -------------------------------------------------------
     A        529     529       0       0       0       0
   -------------------------------------------------------
    Total     529     529      31      31      31       0
   -------------------------------------------------------

  ==> Integral Setup <==

  ==> DFJK: Density-Fitted J/K Matrices <==

    J tasked:                  Yes
    K tasked:                  Yes
    wK tasked:                  No
    OpenMP threads:              6
    Integrals threads:           6
    Memory (MB):             42915
    Algorithm:                Core
    Integral Cache:           NONE
    Schwarz Cutoff:          1E-12
    Fitting Condition:       1E-12

   => Auxiliary Basis Set <=

  Basis Set: (AUG-CC-PVTZ AUX)
    Blend: AUG-CC-PVTZ-JKFIT
    Number of shells: 338
    Number of basis function: 1154
    Number of Cartesian functions: 1433
    Spherical Harmonics?: true
    Max angular momentum: 4

  Minimum eigenvalue in the overlap matrix is 4.4293499983E-06.
  Using Symmetric Orthogonalization.

  SCF Guess: Superposition of Atomic Densities via on-the-fly atomic UHF.

  ==> Iterations <==

                           Total Energy        Delta E     RMS |[F,P]|

   @DF-RHF iter   0:  -437.73875450076395   -4.37739e+02   2.54675e-02 
   @DF-RHF iter   1:  -434.41873808120795    3.32002e+00   3.32802e-03 
   @DF-RHF iter   2:  -434.60576526027279   -1.87027e-01   2.41650e-03 DIIS
   @DF-RHF iter   3:  -434.70286356394166   -9.70983e-02   5.22375e-04 DIIS
   @DF-RHF iter   4:  -434.71405240996035   -1.11888e-02   1.71792e-04 DIIS
   @DF-RHF iter   5:  -434.71563089182393   -1.57848e-03   6.99145e-05 DIIS
   @DF-RHF iter   6:  -434.71595417681181   -3.23285e-04   2.77978e-05 DIIS
   @DF-RHF iter   7:  -434.71601814747635   -6.39707e-05   1.00795e-05 DIIS
   @DF-RHF iter   8:  -434.71602721362308   -9.06615e-06   4.11361e-06 DIIS
   @DF-RHF iter   9:  -434.71602868830013   -1.47468e-06   1.98199e-06 DIIS
   @DF-RHF iter  10:  -434.71602910308536   -4.14785e-07   1.04237e-06 DIIS
   @DF-RHF iter  11:  -434.71602921478967   -1.11704e-07   4.97761e-07 DIIS

  ==> Post-Iterations <==

    Orbital Energies (a.u.)
    -----------------------

    Doubly Occupied:                                                      

       1A    -20.621005     2A    -20.573809     3A    -20.530098  
       4A    -15.558457     5A    -11.379377     6A    -11.347781  
       7A    -11.296186     8A    -11.246631     9A     -1.514719  
      10A     -1.401503    11A     -1.346413    12A     -1.207897  
      13A     -1.051221    14A     -0.943770    15A     -0.886622  
      16A     -0.799982    17A     -0.736948    18A     -0.709229  
      19A     -0.702440    20A     -0.669882    21A     -0.662745  
      22A     -0.636391    23A     -0.629116    24A     -0.568589  
      25A     -0.537327    26A     -0.527720    27A     -0.515155  
      28A     -0.468051    29A     -0.455198    30A     -0.444886  
      31A     -0.383220  

    Virtual:                                                              

      32A      0.021441    33A      0.029996    34A      0.036108  
      35A      0.040005    36A      0.052905    37A      0.057660  
      38A      0.062954    39A      0.082571    40A      0.088024  
      41A      0.093537    42A      0.109565    43A      0.113326  
      44A      0.115495    45A      0.118305    46A      0.122195  
      47A      0.125142    48A      0.127567    49A      0.134869  
      50A      0.137031    51A      0.139223    52A      0.149152  
      53A      0.157123    54A      0.168046    55A      0.170133  
      56A      0.181229    57A      0.184408    58A      0.194866  
      59A      0.198318    60A      0.209985    61A      0.218664  
      62A      0.231966    63A      0.239702    64A      0.249858  
      65A      0.258682    66A      0.266844    67A      0.273083  
      68A      0.275427    69A      0.276659    70A      0.283146  
      71A      0.293978    72A      0.295380    73A      0.299958  
      74A      0.307119    75A      0.315710    76A      0.317569  
      77A      0.325972    78A      0.332284    79A      0.337481  
      80A      0.343020    81A      0.347037    82A      0.360201  
      83A      0.361488    84A      0.374039    85A      0.378900  
      86A      0.387872    87A      0.391515    88A      0.396634  
      89A      0.404486    90A      0.409930    91A      0.413337  
      92A      0.420113    93A      0.427173    94A      0.434995  
      95A      0.437965    96A      0.446670    97A      0.453702  
      98A      0.458993    99A      0.469124   100A      0.474425  
     101A      0.483553   102A      0.487448   103A      0.504376  
     104A      0.504630   105A      0.509632   106A      0.522789  
     107A      0.525950   108A      0.531245   109A      0.539991  
     110A      0.547649   111A      0.561603   112A      0.565692  
     113A      0.572202   114A      0.577566   115A      0.594930  
     116A      0.601141   117A      0.603219   118A      0.613363  
     119A      0.618705   120A      0.627671   121A      0.637153  
     122A      0.641706   123A      0.651124   124A      0.656516  
     125A      0.675015   126A      0.682260   127A      0.686154  
     128A      0.689380   129A      0.700420   130A      0.706757  
     131A      0.726901   132A      0.730331   133A      0.747706  
     134A      0.759884   135A      0.763552   136A      0.775034  
     137A      0.783806   138A      0.796923   139A      0.806171  
     140A      0.812513   141A      0.820018   142A      0.832227  
     143A      0.849152   144A      0.859675   145A      0.869558  
     146A      0.877334   147A      0.878711   148A      0.888233  
     149A      0.899304   150A      0.904237   151A      0.907876  
     152A      0.917364   153A      0.930491   154A      0.936866  
     155A      0.945403   156A      0.946796   157A      0.950952  
     158A      0.961988   159A      0.975567   160A      0.988003  
     161A      0.993455   162A      0.998667   163A      1.002105  
     164A      1.012480   165A      1.022124   166A      1.031463  
     167A      1.038561   168A      1.040806   169A      1.047899  
     170A      1.058026   171A      1.063007   172A      1.066141  
     173A      1.077072   174A      1.081727   175A      1.083945  
     176A      1.108439   177A      1.110717   178A      1.119083  
     179A      1.124438   180A      1.129377   181A      1.140202  
     182A      1.153801   183A      1.159606   184A      1.175195  
     185A      1.180653   186A      1.191108   187A      1.193378  
     188A      1.211232   189A      1.220870   190A      1.223366  
     191A      1.235181   192A      1.245959   193A      1.248981  
     194A      1.263316   195A      1.274456   196A      1.294966  
     197A      1.297522   198A      1.308483   199A      1.310362  
     200A      1.327776   201A      1.333814   202A      1.350520  
     203A      1.351733   204A      1.357306   205A      1.365297  
     206A      1.386473   207A      1.396696   208A      1.408739  
     209A      1.410911   210A      1.435559   211A      1.444919  
     212A      1.452586   213A      1.456411   214A      1.467421  
     215A      1.471877   216A      1.484913   217A      1.489448  
     218A      1.501310   219A      1.518442   220A      1.527095  
     221A      1.528939   222A      1.540218   223A      1.557278  
     224A      1.572121   225A      1.588607   226A      1.596062  
     227A      1.598241   228A      1.601092   229A      1.626414  
     230A      1.632312   231A      1.656780   232A      1.666625  
     233A      1.674298   234A      1.680929   235A      1.690389  
     236A      1.701772   237A      1.722537   238A      1.732267  
     239A      1.741195   240A      1.752110   241A      1.767383  
     242A      1.776346   243A      1.788408   244A      1.801717  
     245A      1.814742   246A      1.819793   247A      1.832499  
     248A      1.850396   249A      1.857974   250A      1.868000  
     251A      1.889136   252A      1.897945   253A      1.918957  
     254A      1.924006   255A      1.933369   256A      1.941727  
     257A      1.963504   258A      1.966199   259A      1.974635  
     260A      1.984588   261A      2.017651   262A      2.027610  
     263A      2.036037   264A      2.063839   265A      2.089053  
     266A      2.105940   267A      2.118517   268A      2.136060  
     269A      2.144046   270A      2.152835   271A      2.165325  
     272A      2.185732   273A      2.202513   274A      2.221349  
     275A      2.223136   276A      2.252496   277A      2.261299  
     278A      2.286087   279A      2.303187   280A      2.317889  
     281A      2.327482   282A      2.339291   283A      2.367528  
     284A      2.369841   285A      2.396659   286A      2.401629  
     287A      2.417581   288A      2.440004   289A      2.468993  
     290A      2.478368   291A      2.489563   292A      2.500452  
     293A      2.506451   294A      2.527683   295A      2.534796  
     296A      2.549692   297A      2.565148   298A      2.590266  
     299A      2.601984   300A      2.606012   301A      2.627674  
     302A      2.642427   303A      2.651983   304A      2.656654  
     305A      2.672801   306A      2.694360   307A      2.712299  
     308A      2.728627   309A      2.737948   310A      2.753524  
     311A      2.765389   312A      2.786572   313A      2.803542  
     314A      2.820937   315A      2.839611   316A      2.841566  
     317A      2.867992   318A      2.881827   319A      2.898389  
     320A      2.917730   321A      2.949520   322A      2.963652  
     323A      2.978189   324A      2.997946   325A      3.014224  
     326A      3.034589   327A      3.053823   328A      3.069651  
     329A      3.110699   330A      3.118509   331A      3.138034  
     332A      3.158299   333A      3.170238   334A      3.236565  
     335A      3.276329   336A      3.296835   337A      3.335738  
     338A      3.369055   339A      3.396962   340A      3.406242  
     341A      3.431269   342A      3.450063   343A      3.475640  
     344A      3.503231   345A      3.538128   346A      3.564698  
     347A      3.584390   348A      3.593166   349A      3.619178  
     350A      3.654425   351A      3.658229   352A      3.667734  
     353A      3.677739   354A      3.705431   355A      3.743713  
     356A      3.766046   357A      3.780537   358A      3.803952  
     359A      3.818773   360A      3.841116   361A      3.846514  
     362A      3.869439   363A      3.895434   364A      3.902921  
     365A      3.927100   366A      3.935697   367A      3.975696  
     368A      3.991949   369A      4.002890   370A      4.027846  
     371A      4.042905   372A      4.057507   373A      4.061662  
     374A      4.079775   375A      4.111757   376A      4.120464  
     377A      4.124348   378A      4.155427   379A      4.181526  
     380A      4.188880   381A      4.199611   382A      4.232737  
     383A      4.238772   384A      4.250343   385A      4.251859  
     386A      4.271891   387A      4.292441   388A      4.302705  
     389A      4.315088   390A      4.339900   391A      4.364998  
     392A      4.386752   393A      4.407007   394A      4.411279  
     395A      4.435527   396A      4.444673   397A      4.449475  
     398A      4.471047   399A      4.492456   400A      4.514462  
     401A      4.526602   402A      4.548910   403A      4.575512  
     404A      4.596415   405A      4.598779   406A      4.605637  
     407A      4.643564   408A      4.656523   409A      4.675400  
     410A      4.694490   411A      4.726261   412A      4.742721  
     413A      4.767364   414A      4.795349   415A      4.812263  
     416A      4.835807   417A      4.867355   418A      4.871852  
     419A      4.879946   420A      4.891491   421A      4.922970  
     422A      4.936346   423A      4.941974   424A      4.955994  
     425A      4.983356   426A      4.988143   427A      5.030590  
     428A      5.045471   429A      5.058980   430A      5.089588  
     431A      5.098382   432A      5.120010   433A      5.144330  
     434A      5.155985   435A      5.184874   436A      5.222613  
     437A      5.243761   438A      5.246615   439A      5.261761  
     440A      5.302244   441A      5.318903   442A      5.366175  
     443A      5.373191   444A      5.397137   445A      5.405965  
     446A      5.427610   447A      5.458209   448A      5.498544  
     449A      5.511141   450A      5.557194   451A      5.569394  
     452A      5.591155   453A      5.599409   454A      5.655954  
     455A      5.680786   456A      5.694527   457A      5.708064  
     458A      5.750069   459A      5.806642   460A      5.847848  
     461A      5.857759   462A      5.870008   463A      5.935999  
     464A      5.949989   465A      6.008161   466A      6.039234  
     467A      6.090554   468A      6.127948   469A      6.157680  
     470A      6.198041   471A      6.266342   472A      6.291475  
     473A      6.310341   474A      6.379152   475A      6.386181  
     476A      6.507500   477A      6.529436   478A      6.592723  
     479A      6.677685   480A      6.728991   481A      6.737186  
     482A      6.753253   483A      6.783269   484A      6.808482  
     485A      6.847740   486A      6.871809   487A      6.925839  
     488A      6.983144   489A      6.997320   490A      7.023816  
     491A      7.035346   492A      7.051015   493A      7.077249  
     494A      7.120722   495A      7.181122   496A      7.236926  
     497A      7.298720   498A      7.357449   499A      7.379775  
     500A      7.393874   501A      7.415520   502A      7.430770  
     503A      7.449124   504A      7.457607   505A      7.510840  
     506A      7.518540   507A      7.562605   508A      7.602057  
     509A      7.635270   510A      7.711835   511A      7.733417  
     512A      7.761203   513A      7.790119   514A      7.869225  
     515A      7.904588   516A      7.931543   517A      7.938870  
     518A      7.960964   519A      8.080233   520A      8.308099  
     521A      8.690714   522A     15.401225   523A     15.773624  
     524A     16.675083   525A     17.223366   526A     18.120302  
     527A     18.340186   528A     19.765895   529A     20.889113  

    Final Occupation by Irrep:
              A 
    DOCC [    31 ]

  Energy converged.

  @DF-RHF Final Energy:  -434.71602921478967

   => Energetics <=

    Nuclear Repulsion Energy =            383.6628521314407863
    One-Electron Energy =               -1356.0530816533814686
    Two-Electron Energy =                 537.6742003071510680
    Total Energy =                       -434.7160292147896143



Properties will be evaluated at   0.000000,   0.000000,   0.000000 Bohr

Properties computed using the SCF density matrix

  Nuclear Dipole Moment: (a.u.)
     X:     0.9545      Y:     3.5942      Z:    -4.6128

  Electronic Dipole Moment: (a.u.)
     X:    -0.2918      Y:    -2.3076      Z:     4.3375

  Dipole Moment: (a.u.)
     X:     0.6627      Y:     1.2866      Z:    -0.2752     Total:     1.4732

  Dipole Moment: (Debye)
     X:     1.6844      Y:     3.2703      Z:    -0.6996     Total:     3.7445


*** tstop() called on hex15 at Thu Mar  1 17:43:52 2018
Module time:
	user time   =     112.86 seconds =       1.88 minutes
	system time =       1.37 seconds =       0.02 minutes
	total time  =         29 seconds =       0.48 minutes
Total time:
	user time   =     112.86 seconds =       1.88 minutes
	system time =       1.37 seconds =       0.02 minutes
	total time  =         29 seconds =       0.48 minutes

*** Psi4 exiting successfully. Buy a developer a beer!
