
    -----------------------------------------------------------------------
          Psi4: An Open-Source Ab Initio Electronic Structure Package
                               Psi4 1.2a1.dev875 

                         Git: Rev {symm_JK} 0ea9481 dirty


    R. M. Parrish, L. A. Burns, D. G. A. Smith, A. C. Simmonett,
    A. E. DePrince III, E. G. Hohenstein, U. Bozkaya, A. Yu. Sokolov,
    R. Di Remigio, R. M. Richard, J. F. Gonthier, A. M. James,
    H. R. McAlexander, A. Kumar, M. Saitow, X. Wang, B. P. Pritchard,
    P. Verma, H. F. Schaefer III, K. Patkowski, R. A. King, E. F. Valeev,
    F. A. Evangelista, J. M. Turney, T. D. Crawford, and C. D. Sherrill,
    J. Chem. Theory Comput. 13(7) pp 3185--3197 (2017).
    (doi: 10.1021/acs.jctc.7b00174)

    -----------------------------------------------------------------------


    Psi4 started on: Wednesday, 07 March 2018 06:14AM

    Process ID:  20504
    PSIDATADIR: /theoryfs2/ds/schieber/Gits/mspsi4/objdir3/stage/usr/local/psi4/share/psi4
    Memory:     500.0 MiB
    Threads:    6
    
  ==> Input File <==

--------------------------------------------------------------------------
memory 60 Gb

molecule protein_39 {
0 1
 N   18.626  30.444   6.627
 C   17.853  29.516   5.837
 C   16.945  30.292   4.886
 O   15.843  30.678   5.237
 C   17.047  28.642   6.811
 C   16.316  27.513   6.146
 O   16.236  27.458   4.905
 O   15.762  26.696   6.882
 N   17.407  27.054  -1.437
 C   17.227  26.751  -0.026
 C   18.555  26.446   0.653
 O   19.003  25.309   0.692
 C   16.258  25.572   0.084
 C   15.759  25.336   1.493
 O   16.399  25.780   2.453
 O   14.731  24.675   1.645
 N   19.106  26.199   3.688
 C   18.957  25.372   4.876
 C   18.845  23.903   4.520
 O   18.660  23.054   5.417
 H   18.180  30.990   7.295
 H   18.510  28.835   5.249
 H   16.336  29.276   7.377
 H   17.778  28.186   7.516
 H   15.845  26.702   7.843
 H   17.860  26.421  -2.023
 H   16.724  27.595   0.500
 H   16.724  24.663  -0.337
 H   15.363  25.845  -0.519
 H   16.737  25.171   3.109
 H   18.314  26.771   3.377
 H   18.015  25.631   5.391
 H   19.792  25.567   5.577
 H   19.646  30.419   6.619
 H   17.295  30.415   3.850
 H   16.947  27.858  -1.864
 H   19.060  27.284   1.155
 H   20.034  26.347   3.290
 H   18.824  23.654   3.449
}

set {
basis aug-cc-pvqz
scf_type df
guess sad
DF_SCF_TYPE DFJK
}

energy('HF')
--------------------------------------------------------------------------

  Memory set to  55.879 GiB by Python driver.

*** tstart() called on hex15
*** at Wed Mar  7 06:14:31 2018

   => Loading Basis Set <=

    Name: AUG-CC-PVQZ
    Role: ORBITAL
    Keyword: BASIS
    atoms 1, 9, 17                      entry N          line   359 file /theoryfs2/ds/schieber/Gits/mspsi4/objdir3/stage/usr/local/psi4/share/psi4/basis/aug-cc-pvqz.gbs 
    atoms 2-3, 5-6, 10-11, 13-14, 18-19 entry C          line   299 file /theoryfs2/ds/schieber/Gits/mspsi4/objdir3/stage/usr/local/psi4/share/psi4/basis/aug-cc-pvqz.gbs 
    atoms 4, 7-8, 12, 15-16, 20         entry O          line   419 file /theoryfs2/ds/schieber/Gits/mspsi4/objdir3/stage/usr/local/psi4/share/psi4/basis/aug-cc-pvqz.gbs 
    atoms 21-39                         entry H          line    36 file /theoryfs2/ds/schieber/Gits/mspsi4/objdir3/stage/usr/local/psi4/share/psi4/basis/aug-cc-pvqz.gbs 


         ---------------------------------------------------------
                                   SCF
            by Justin Turney, Rob Parrish, Andy Simmonett
                             and Daniel Smith
                              RHF Reference
                        6 Threads,  57220 MiB Core
         ---------------------------------------------------------

  ==> Geometry <==

    Molecular point group: c1
    Full point group: C1

    Geometry (in Angstrom), charge = 0, multiplicity = 1:

       Center              X                  Y                   Z               Mass       
    ------------   -----------------  -----------------  -----------------  -----------------
           N          1.351848201903     3.618071616974     3.042782948432    14.003074004780
           C          0.578848201903     2.690071616974     2.252782948432    12.000000000000
           C         -0.329151798097     3.466071616974     1.301782948432    12.000000000000
           O         -1.431151798097     3.852071616974     1.652782948432    15.994914619560
           C         -0.227151798097     1.816071616974     3.226782948432    12.000000000000
           C         -0.958151798097     0.687071616974     2.561782948432    12.000000000000
           O         -1.038151798097     0.632071616974     1.320782948432    15.994914619560
           O         -1.512151798097    -0.129928383026     3.297782948432    15.994914619560
           N          0.132848201903     0.228071616974    -5.021217051568    14.003074004780
           C         -0.047151798097    -0.074928383026    -3.610217051568    12.000000000000
           C          1.280848201903    -0.379928383026    -2.931217051568    12.000000000000
           O          1.728848201903    -1.516928383026    -2.892217051568    15.994914619560
           C         -1.016151798097    -1.253928383026    -3.500217051568    12.000000000000
           C         -1.515151798097    -1.489928383026    -2.091217051568    12.000000000000
           O         -0.875151798097    -1.045928383026    -1.131217051568    15.994914619560
           O         -2.543151798097    -2.150928383026    -1.939217051568    15.994914619560
           N          1.831848201903    -0.626928383026     0.103782948432    14.003074004780
           C          1.682848201903    -1.453928383026     1.291782948432    12.000000000000
           C          1.570848201903    -2.922928383026     0.935782948432    12.000000000000
           O          1.385848201903    -3.771928383026     1.832782948432    15.994914619560
           H          0.905848201903     4.164071616974     3.710782948432     1.007825032070
           H          1.235848201903     2.009071616974     1.664782948432     1.007825032070
           H         -0.938151798097     2.450071616974     3.792782948432     1.007825032070
           H          0.503848201903     1.360071616974     3.931782948432     1.007825032070
           H         -1.429151798097    -0.123928383026     4.258782948432     1.007825032070
           H          0.585848201903    -0.404928383026    -5.607217051568     1.007825032070
           H         -0.550151798097     0.769071616974    -3.084217051568     1.007825032070
           H         -0.550151798097    -2.162928383026    -3.921217051568     1.007825032070
           H         -1.911151798097    -0.980928383026    -4.103217051568     1.007825032070
           H         -0.537151798097    -1.654928383026    -0.475217051568     1.007825032070
           H          1.039848201903    -0.054928383026    -0.207217051568     1.007825032070
           H          0.740848201903    -1.194928383026     1.806782948432     1.007825032070
           H          2.517848201903    -1.258928383026     1.992782948432     1.007825032070
           H          2.371848201903     3.593071616974     3.034782948432     1.007825032070
           H          0.020848201903     3.589071616974     0.265782948432     1.007825032070
           H         -0.327151798097     1.032071616974    -5.448217051568     1.007825032070
           H          1.785848201903     0.458071616974    -2.429217051568     1.007825032070
           H          2.759848201903    -0.478928383026    -0.294217051568     1.007825032070
           H          1.549848201903    -3.171928383026    -0.135217051568     1.007825032070

  Running in c1 symmetry.

  Rotational constants: A =      0.01135  B =      0.00596  C =      0.00509 [cm^-1]
  Rotational constants: A =    340.34658  B =    178.57705  C =    152.51078 [MHz]
  Nuclear repulsion = 1638.269612368452044

  Charge       = 0
  Multiplicity = 1
  Electrons    = 156
  Nalpha       = 78
  Nbeta        = 78

  ==> Algorithm <==

  SCF Algorithm Type is DF.
  DIIS enabled.
  MOM disabled.
  Fractional occupation disabled.
  Guess Type is SAD.
  Energy threshold   = 1.00e-06
  Density threshold  = 1.00e-06
  Integral threshold = 0.00e+00

  ==> Primary Basis <==

  Basis Set: AUG-CC-PVQZ
    Blend: AUG-CC-PVQZ
    Number of shells: 666
    Number of basis function: 2474
    Number of Cartesian functions: 3145
    Spherical Harmonics?: true
    Max angular momentum: 4

   => Loading Basis Set <=

    Name: (AUG-CC-PVQZ AUX)
    Role: JKFIT
    Keyword: DF_BASIS_SCF
    atoms 1, 9, 17                      entry N          line   248 file /theoryfs2/ds/schieber/Gits/mspsi4/objdir3/stage/usr/local/psi4/share/psi4/basis/aug-cc-pvqz-jkfit.gbs 
    atoms 2-3, 5-6, 10-11, 13-14, 18-19 entry C          line   178 file /theoryfs2/ds/schieber/Gits/mspsi4/objdir3/stage/usr/local/psi4/share/psi4/basis/aug-cc-pvqz-jkfit.gbs 
    atoms 4, 7-8, 12, 15-16, 20         entry O          line   318 file /theoryfs2/ds/schieber/Gits/mspsi4/objdir3/stage/usr/local/psi4/share/psi4/basis/aug-cc-pvqz-jkfit.gbs 
    atoms 21-39                         entry H          line    70 file /theoryfs2/ds/schieber/Gits/mspsi4/objdir3/stage/usr/local/psi4/share/psi4/basis/aug-cc-pvqz-jkfit.gbs 

  ==> Pre-Iterations <==

   -------------------------------------------------------
    Irrep   Nso     Nmo     Nalpha   Nbeta   Ndocc  Nsocc
   -------------------------------------------------------
     A       2474    2474       0       0       0       0
   -------------------------------------------------------
    Total    2474    2474      78      78      78       0
   -------------------------------------------------------

  ==> Integral Setup <==

  ==> DFJK: Density-Fitted J/K Matrices <==

    J tasked:                  Yes
    K tasked:                  Yes
    wK tasked:                  No
    OpenMP threads:              6
    Integrals threads:           6
    Memory (MB):             42915
    Algorithm:                Disk
    Integral Cache:           NONE
    Schwarz Cutoff:          1E-12
    Fitting Condition:       1E-12

   => Auxiliary Basis Set <=

  Basis Set: (AUG-CC-PVQZ AUX)
    Blend: AUG-CC-PVQZ-JKFIT
    Number of shells: 1022
    Number of basis function: 4284
    Number of Cartesian functions: 5879
    Spherical Harmonics?: true
    Max angular momentum: 5

  Minimum eigenvalue in the overlap matrix is 4.0878887296E-07.
  Using Symmetric Orthogonalization.

  SCF Guess: Superposition of Atomic Densities via on-the-fly atomic UHF.

  ==> Iterations <==

                           Total Energy        Delta E     RMS |[F,P]|

   @DF-RHF iter   0: -1084.84671797107058   -1.08485e+03   8.41413e-03 
   @DF-RHF iter   1: -1076.78448268012426    8.06224e+00   1.09764e-03 
   @DF-RHF iter   2: -1077.25652800330158   -4.72045e-01   7.56164e-04 DIIS
   @DF-RHF iter   3: -1077.47051107418952   -2.13983e-01   1.73603e-04 DIIS
   @DF-RHF iter   4: -1077.49610155689652   -2.55905e-02   6.07994e-05 DIIS
   @DF-RHF iter   5: -1077.50056757939001   -4.46602e-03   2.70965e-05 DIIS
   @DF-RHF iter   6: -1077.50189873140789   -1.33115e-03   1.42953e-05 DIIS
   @DF-RHF iter   7: -1077.50239607908770   -4.97348e-04   7.09634e-06 DIIS
   @DF-RHF iter   8: -1077.50252198822614   -1.25909e-04   3.35626e-06 DIIS
   @DF-RHF iter   9: -1077.50255151466354   -2.95264e-05   1.34898e-06 DIIS
   @DF-RHF iter  10: -1077.50255601464573   -4.49998e-06   5.25704e-07 DIIS
   @DF-RHF iter  11: -1077.50255667787133   -6.63226e-07   1.96964e-07 DIIS

  ==> Post-Iterations <==

    Orbital Energies (a.u.)
    -----------------------

    Doubly Occupied:                                                      

       1A    -20.646116     2A    -20.602889     3A    -20.568455  
       4A    -20.562255     5A    -20.559979     6A    -20.541072  
       7A    -20.515619     8A    -15.561484     9A    -15.553787  
      10A    -15.551006    11A    -11.398659    12A    -11.366741  
      13A    -11.345622    14A    -11.340148    15A    -11.337568  
      16A    -11.299127    17A    -11.291575    18A    -11.284241  
      19A    -11.266957    20A    -11.239131    21A     -1.530361  
      22A     -1.500304    23A     -1.398578    24A     -1.394501  
      25A     -1.370436    26A     -1.359949    27A     -1.333697  
      28A     -1.217371    29A     -1.204393    30A     -1.188402  
      31A     -1.058710    32A     -1.045086    33A     -0.967813  
      34A     -0.953021    35A     -0.938884    36A     -0.909511  
      37A     -0.876666    38A     -0.812200    39A     -0.805999  
      40A     -0.797325    41A     -0.751094    42A     -0.734021  
      43A     -0.721823    44A     -0.708853    45A     -0.697457  
      46A     -0.695499    47A     -0.690999    48A     -0.688385  
      49A     -0.668661    50A     -0.664025    51A     -0.662147  
      52A     -0.655352    53A     -0.646774    54A     -0.634249  
      55A     -0.632817    56A     -0.631550    57A     -0.624411  
      58A     -0.593322    59A     -0.580944    60A     -0.576683  
      61A     -0.565805    62A     -0.560461    63A     -0.534918  
      64A     -0.532064    65A     -0.522725    66A     -0.518587  
      67A     -0.508031    68A     -0.491514    69A     -0.477327  
      70A     -0.465380    71A     -0.458351    72A     -0.450091  
      73A     -0.447730    74A     -0.446232    75A     -0.436670  
      76A     -0.389722    77A     -0.385232    78A     -0.379601  

    Virtual:                                                              

      79A      0.008819    80A      0.015236    81A      0.021495  
      82A      0.026537    83A      0.031386    84A      0.034889  
      85A      0.041265    86A      0.042558    87A      0.044644  
      88A      0.050899    89A      0.052335    90A      0.056377  
      91A      0.061668    92A      0.062348    93A      0.065867  
      94A      0.068473    95A      0.071917    96A      0.075531  
      97A      0.080537    98A      0.082287    99A      0.083010  
     100A      0.087804   101A      0.089021   102A      0.093161  
     103A      0.094001   104A      0.094841   105A      0.096680  
     106A      0.102433   107A      0.104012   108A      0.109194  
     109A      0.112201   110A      0.113903   111A      0.115714  
     112A      0.116798   113A      0.117324   114A      0.119715  
     115A      0.122785   116A      0.124361   117A      0.124957  
     118A      0.126609   119A      0.127440   120A      0.130532  
     121A      0.133402   122A      0.136259   123A      0.138266  
     124A      0.139413   125A      0.142327   126A      0.145070  
     127A      0.147694   128A      0.150041   129A      0.153635  
     130A      0.155236   131A      0.158939   132A      0.162271  
     133A      0.163443   134A      0.165422   135A      0.168042  
     136A      0.169639   137A      0.172010   138A      0.175937  
     139A      0.176901   140A      0.177921   141A      0.183064  
     142A      0.186135   143A      0.187830   144A      0.190483  
     145A      0.194912   146A      0.196534   147A      0.198812  
     148A      0.203398   149A      0.204775   150A      0.207290  
     151A      0.209379   152A      0.213707   153A      0.214608  
     154A      0.217204   155A      0.219191   156A      0.222018  
     157A      0.226608   158A      0.229676   159A      0.231800  
     160A      0.233124   161A      0.238040   162A      0.238903  
     163A      0.240296   164A      0.242403   165A      0.248521  
     166A      0.250602   167A      0.252603   168A      0.256219  
     169A      0.256726   170A      0.260607   171A      0.263289  
     172A      0.264227   173A      0.265592   174A      0.268684  
     175A      0.269865   176A      0.270382   177A      0.271726  
     178A      0.275944   179A      0.277138   180A      0.278763  
     181A      0.280446   182A      0.282655   183A      0.284765  
     184A      0.287355   185A      0.291131   186A      0.292968  
     187A      0.293911   188A      0.295951   189A      0.299137  
     190A      0.300070   191A      0.304215   192A      0.305993  
     193A      0.308366   194A      0.311896   195A      0.314631  
     196A      0.316435   197A      0.317462   198A      0.319903  
     199A      0.322617   200A      0.325232   201A      0.326974  
     202A      0.330687   203A      0.335299   204A      0.336728  
     205A      0.338326   206A      0.340969   207A      0.343898  
     208A      0.346056   209A      0.346775   210A      0.351669  
     211A      0.355863   212A      0.357109   213A      0.358521  
     214A      0.361264   215A      0.363115   216A      0.363607  
     217A      0.366068   218A      0.368323   219A      0.370681  
     220A      0.371678   221A      0.375724   222A      0.378545  
     223A      0.380237   224A      0.383442   225A      0.385199  
     226A      0.387701   227A      0.389806   228A      0.391207  
     229A      0.392187   230A      0.393158   231A      0.394813  
     232A      0.400450   233A      0.405331   234A      0.409062  
     235A      0.409579   236A      0.411072   237A      0.413934  
     238A      0.415289   239A      0.418023   240A      0.420992  
     241A      0.421375   242A      0.423094   243A      0.426053  
     244A      0.428964   245A      0.431516   246A      0.434563  
     247A      0.437503   248A      0.439492   249A      0.441819  
     250A      0.443431   251A      0.443799   252A      0.447269  
     253A      0.450161   254A      0.452318   255A      0.453535  
     256A      0.456370   257A      0.457657   258A      0.459083  
     259A      0.461933   260A      0.464573   261A      0.466238  
     262A      0.469899   263A      0.472553   264A      0.474192  
     265A      0.476803   266A      0.477283   267A      0.478053  
     268A      0.480647   269A      0.482982   270A      0.486313  
     271A      0.488480   272A      0.489659   273A      0.490788  
     274A      0.494772   275A      0.495852   276A      0.500421  
     277A      0.502755   278A      0.504134   279A      0.506376  
     280A      0.506523   281A      0.512208   282A      0.517944  
     283A      0.520047   284A      0.522563   285A      0.523437  
     286A      0.524970   287A      0.527208   288A      0.531091  
     289A      0.534266   290A      0.534627   291A      0.536514  
     292A      0.540215   293A      0.542211   294A      0.544705  
     295A      0.549081   296A      0.550418   297A      0.553780  
     298A      0.555327   299A      0.557107   300A      0.560420  
     301A      0.561283   302A      0.565367   303A      0.566355  
     304A      0.571402   305A      0.572134   306A      0.574217  
     307A      0.576945   308A      0.579807   309A      0.580523  
     310A      0.584409   311A      0.588867   312A      0.590265  
     313A      0.591310   314A      0.592580   315A      0.597266  
     316A      0.601184   317A      0.604533   318A      0.607688  
     319A      0.611148   320A      0.611683   321A      0.613571  
     322A      0.615381   323A      0.618609   324A      0.621395  
     325A      0.622479   326A      0.625901   327A      0.628894  
     328A      0.635204   329A      0.636277   330A      0.639832  
     331A      0.640337   332A      0.643581   333A      0.645627  
     334A      0.646717   335A      0.653003   336A      0.656414  
     337A      0.657714   338A      0.659747   339A      0.663186  
     340A      0.665588   341A      0.669050   342A      0.670917  
     343A      0.672980   344A      0.675802   345A      0.679982  
     346A      0.683517   347A      0.684187   348A      0.687874  
     349A      0.690910   350A      0.693026   351A      0.694032  
     352A      0.697923   353A      0.700791   354A      0.702422  
     355A      0.704624   356A      0.708727   357A      0.711919  
     358A      0.716400   359A      0.717005   360A      0.719174  
     361A      0.720850   362A      0.725620   363A      0.728754  
     364A      0.731009   365A      0.733055   366A      0.734807  
     367A      0.737035   368A      0.737272   369A      0.740869  
     370A      0.743700   371A      0.745329   372A      0.746542  
     373A      0.749887   374A      0.753960   375A      0.754603  
     376A      0.757912   377A      0.758435   378A      0.761326  
     379A      0.764743   380A      0.765556   381A      0.768613  
     382A      0.770212   383A      0.773366   384A      0.774226  
     385A      0.779681   386A      0.784206   387A      0.784525  
     388A      0.788136   389A      0.789775   390A      0.791343  
     391A      0.793619   392A      0.794572   393A      0.799441  
     394A      0.800339   395A      0.802478   396A      0.804403  
     397A      0.808059   398A      0.811124   399A      0.816093  
     400A      0.818347   401A      0.821568   402A      0.822391  
     403A      0.823409   404A      0.826110   405A      0.829805  
     406A      0.833976   407A      0.837213   408A      0.839736  
     409A      0.841601   410A      0.844383   411A      0.848527  
     412A      0.850336   413A      0.850775   414A      0.852221  
     415A      0.854940   416A      0.856394   417A      0.860413  
     418A      0.862041   419A      0.864492   420A      0.868325  
     421A      0.869783   422A      0.871523   423A      0.872466  
     424A      0.878534   425A      0.878871   426A      0.879875  
     427A      0.882491   428A      0.888576   429A      0.889862  
     430A      0.892044   431A      0.896736   432A      0.897011  
     433A      0.900277   434A      0.901982   435A      0.902982  
     436A      0.908799   437A      0.910129   438A      0.914780  
     439A      0.917817   440A      0.918500   441A      0.921544  
     442A      0.924586   443A      0.925393   444A      0.927836  
     445A      0.928544   446A      0.929900   447A      0.932742  
     448A      0.938120   449A      0.938840   450A      0.941417  
     451A      0.945698   452A      0.947807   453A      0.948821  
     454A      0.952787   455A      0.955344   456A      0.955909  
     457A      0.959970   458A      0.960997   459A      0.963384  
     460A      0.967712   461A      0.971698   462A      0.975105  
     463A      0.977039   464A      0.979456   465A      0.980020  
     466A      0.986948   467A      0.989301   468A      0.993466  
     469A      0.998107   470A      1.002282   471A      1.003651  
     472A      1.004749   473A      1.006208   474A      1.008472  
     475A      1.013134   476A      1.014617   477A      1.015513  
     478A      1.018696   479A      1.022182   480A      1.022657  
     481A      1.025637   482A      1.027715   483A      1.031282  
     484A      1.033639   485A      1.035117   486A      1.039169  
     487A      1.042309   488A      1.042994   489A      1.046100  
     490A      1.050955   491A      1.053283   492A      1.057216  
     493A      1.059200   494A      1.062399   495A      1.068130  
     496A      1.069539   497A      1.071889   498A      1.072002  
     499A      1.074483   500A      1.080533   501A      1.084757  
     502A      1.087943   503A      1.090448   504A      1.095801  
     505A      1.099303   506A      1.099665   507A      1.101426  
     508A      1.104162   509A      1.106633   510A      1.109478  
     511A      1.111397   512A      1.115464   513A      1.120738  
     514A      1.121880   515A      1.124672   516A      1.126719  
     517A      1.131674   518A      1.135608   519A      1.135916  
     520A      1.139558   521A      1.141575   522A      1.142990  
     523A      1.146390   524A      1.150122   525A      1.153965  
     526A      1.157042   527A      1.159484   528A      1.165931  
     529A      1.167297   530A      1.170352   531A      1.173781  
     532A      1.174351   533A      1.178758   534A      1.183330  
     535A      1.186152   536A      1.187357   537A      1.188586  
     538A      1.193102   539A      1.196599   540A      1.197282  
     541A      1.200729   542A      1.202619   543A      1.204901  
     544A      1.205445   545A      1.209593   546A      1.212322  
     547A      1.218837   548A      1.220564   549A      1.224679  
     550A      1.226988   551A      1.228419   552A      1.232666  
     553A      1.235256   554A      1.238315   555A      1.241005  
     556A      1.242040   557A      1.243012   558A      1.247805  
     559A      1.251448   560A      1.251787   561A      1.259855  
     562A      1.261769   563A      1.262430   564A      1.268342  
     565A      1.272106   566A      1.273468   567A      1.277300  
     568A      1.279739   569A      1.283511   570A      1.287348  
     571A      1.288705   572A      1.295093   573A      1.297013  
     574A      1.298595   575A      1.299914   576A      1.305359  
     577A      1.309570   578A      1.310411   579A      1.313118  
     580A      1.316944   581A      1.320600   582A      1.322357  
     583A      1.325943   584A      1.327997   585A      1.330214  
     586A      1.335237   587A      1.341519   588A      1.344338  
     589A      1.345210   590A      1.346220   591A      1.349808  
     592A      1.355656   593A      1.355695   594A      1.357148  
     595A      1.359694   596A      1.365286   597A      1.368216  
     598A      1.372997   599A      1.376811   600A      1.378156  
     601A      1.380155   602A      1.385561   603A      1.388308  
     604A      1.392079   605A      1.394894   606A      1.399124  
     607A      1.404085   608A      1.408644   609A      1.409662  
     610A      1.412318   611A      1.413050   612A      1.414477  
     613A      1.420851   614A      1.421881   615A      1.427709  
     616A      1.429674   617A      1.432262   618A      1.437837  
     619A      1.440528   620A      1.442394   621A      1.444739  
     622A      1.449625   623A      1.453053   624A      1.454189  
     625A      1.459429   626A      1.465833   627A      1.467753  
     628A      1.470398   629A      1.479081   630A      1.482454  
     631A      1.484603   632A      1.488729   633A      1.489743  
     634A      1.496866   635A      1.501443   636A      1.502743  
     637A      1.509104   638A      1.509651   639A      1.515944  
     640A      1.518821   641A      1.519329   642A      1.524607  
     643A      1.527051   644A      1.529537   645A      1.533962  
     646A      1.536293   647A      1.537229   648A      1.540482  
     649A      1.548431   650A      1.550248   651A      1.554092  
     652A      1.555997   653A      1.557156   654A      1.561822  
     655A      1.564179   656A      1.567960   657A      1.570085  
     658A      1.573327   659A      1.574648   660A      1.578332  
     661A      1.583343   662A      1.584994   663A      1.589181  
     664A      1.595680   665A      1.600016   666A      1.604536  
     667A      1.607100   668A      1.610028   669A      1.611085  
     670A      1.612977   671A      1.618376   672A      1.620847  
     673A      1.622505   674A      1.625989   675A      1.632036  
     676A      1.634856   677A      1.637557   678A      1.641391  
     679A      1.641869   680A      1.646919   681A      1.650900  
     682A      1.654508   683A      1.657337   684A      1.662938  
     685A      1.666687   686A      1.673079   687A      1.675847  
     688A      1.677494   689A      1.679537   690A      1.683585  
     691A      1.685675   692A      1.689724   693A      1.692391  
     694A      1.697611   695A      1.701715   696A      1.707141  
     697A      1.707567   698A      1.711414   699A      1.714873  
     700A      1.718449   701A      1.721754   702A      1.724328  
     703A      1.727226   704A      1.729373   705A      1.734093  
     706A      1.736317   707A      1.741543   708A      1.744852  
     709A      1.746866   710A      1.747758   711A      1.752110  
     712A      1.756613   713A      1.760737   714A      1.767529  
     715A      1.768759   716A      1.772053   717A      1.773718  
     718A      1.778675   719A      1.780175   720A      1.788708  
     721A      1.791717   722A      1.793827   723A      1.794117  
     724A      1.800270   725A      1.801998   726A      1.804901  
     727A      1.808519   728A      1.810541   729A      1.818550  
     730A      1.820302   731A      1.824217   732A      1.826596  
     733A      1.830177   734A      1.833038   735A      1.834268  
     736A      1.840928   737A      1.841948   738A      1.843566  
     739A      1.846972   740A      1.850955   741A      1.854217  
     742A      1.857097   743A      1.858853   744A      1.863157  
     745A      1.866913   746A      1.872667   747A      1.875395  
     748A      1.876656   749A      1.879471   750A      1.881195  
     751A      1.883794   752A      1.891288   753A      1.892407  
     754A      1.896341   755A      1.897211   756A      1.900912  
     757A      1.902390   758A      1.906985   759A      1.909955  
     760A      1.912311   761A      1.913696   762A      1.915940  
     763A      1.924333   764A      1.925566   765A      1.926808  
     766A      1.928885   767A      1.932337   768A      1.936463  
     769A      1.938313   770A      1.944113   771A      1.947422  
     772A      1.949608   773A      1.951585   774A      1.953942  
     775A      1.957309   776A      1.962645   777A      1.965606  
     778A      1.970065   779A      1.972993   780A      1.975356  
     781A      1.976664   782A      1.979809   783A      1.984601  
     784A      1.987368   785A      1.990721   786A      1.994301  
     787A      1.996713   788A      1.997729   789A      2.002030  
     790A      2.004386   791A      2.007214   792A      2.012017  
     793A      2.016142   794A      2.018551   795A      2.025809  
     796A      2.026905   797A      2.032015   798A      2.032518  
     799A      2.034973   800A      2.038910   801A      2.041833  
     802A      2.047110   803A      2.048938   804A      2.052285  
     805A      2.056256   806A      2.061138   807A      2.063752  
     808A      2.064838   809A      2.068745   810A      2.070332  
     811A      2.073415   812A      2.077384   813A      2.082711  
     814A      2.085833   815A      2.087847   816A      2.089345  
     817A      2.091345   818A      2.095446   819A      2.098002  
     820A      2.103208   821A      2.104609   822A      2.106983  
     823A      2.112602   824A      2.114035   825A      2.119187  
     826A      2.121504   827A      2.123610   828A      2.126130  
     829A      2.128861   830A      2.130764   831A      2.133954  
     832A      2.137594   833A      2.139021   834A      2.141988  
     835A      2.143572   836A      2.149768   837A      2.151443  
     838A      2.156192   839A      2.159548   840A      2.163125  
     841A      2.165347   842A      2.169695   843A      2.175834  
     844A      2.179177   845A      2.180367   846A      2.183687  
     847A      2.185667   848A      2.187415   849A      2.190317  
     850A      2.193519   851A      2.198165   852A      2.199045  
     853A      2.200898   854A      2.203430   855A      2.205428  
     856A      2.209159   857A      2.214502   858A      2.216118  
     859A      2.217571   860A      2.223603   861A      2.226160  
     862A      2.228494   863A      2.231272   864A      2.233645  
     865A      2.236425   866A      2.239047   867A      2.240934  
     868A      2.244180   869A      2.245026   870A      2.248809  
     871A      2.251694   872A      2.252804   873A      2.257716  
     874A      2.259612   875A      2.260503   876A      2.265960  
     877A      2.268016   878A      2.270521   879A      2.276520  
     880A      2.277641   881A      2.280910   882A      2.282567  
     883A      2.287985   884A      2.289564   885A      2.294275  
     886A      2.296533   887A      2.300915   888A      2.303933  
     889A      2.306601   890A      2.308610   891A      2.312150  
     892A      2.316516   893A      2.320229   894A      2.322777  
     895A      2.327119   896A      2.329022   897A      2.332420  
     898A      2.333940   899A      2.336001   900A      2.338053  
     901A      2.340766   902A      2.344744   903A      2.348089  
     904A      2.348243   905A      2.351449   906A      2.354875  
     907A      2.359219   908A      2.360924   909A      2.367223  
     910A      2.368137   911A      2.371213   912A      2.372679  
     913A      2.376447   914A      2.380188   915A      2.385020  
     916A      2.387124   917A      2.389735   918A      2.393323  
     919A      2.401393   920A      2.402924   921A      2.405227  
     922A      2.408462   923A      2.411245   924A      2.414488  
     925A      2.416613   926A      2.423121   927A      2.426167  
     928A      2.429103   929A      2.433787   930A      2.435352  
     931A      2.441440   932A      2.442219   933A      2.446182  
     934A      2.449367   935A      2.454906   936A      2.455855  
     937A      2.458129   938A      2.462694   939A      2.465934  
     940A      2.468549   941A      2.468913   942A      2.474344  
     943A      2.478840   944A      2.482817   945A      2.485150  
     946A      2.485774   947A      2.492466   948A      2.494966  
     949A      2.498430   950A      2.503337   951A      2.505478  
     952A      2.507637   953A      2.509961   954A      2.514906  
     955A      2.515024   956A      2.516935   957A      2.521446  
     958A      2.524192   959A      2.527971   960A      2.530337  
     961A      2.534103   962A      2.537721   963A      2.538870  
     964A      2.550147   965A      2.551139   966A      2.552908  
     967A      2.558665   968A      2.562527   969A      2.564907  
     970A      2.569585   971A      2.572172   972A      2.578768  
     973A      2.580519   974A      2.582344   975A      2.586293  
     976A      2.588416   977A      2.594512   978A      2.599458  
     979A      2.602644   980A      2.604254   981A      2.608638  
     982A      2.614341   983A      2.619428   984A      2.621348  
     985A      2.622867   986A      2.626184   987A      2.632796  
     988A      2.637757   989A      2.639704   990A      2.642199  
     991A      2.647296   992A      2.649011   993A      2.653242  
     994A      2.661714   995A      2.665445   996A      2.668744  
     997A      2.670162   998A      2.672492   999A      2.675160  
    1000A      2.680553  1001A      2.683079  1002A      2.686006  
    1003A      2.686492  1004A      2.695194  1005A      2.699628  
    1006A      2.703685  1007A      2.705626  1008A      2.710465  
    1009A      2.715724  1010A      2.716707  1011A      2.723171  
    1012A      2.730174  1013A      2.735112  1014A      2.739190  
    1015A      2.742486  1016A      2.745695  1017A      2.752165  
    1018A      2.755685  1019A      2.757094  1020A      2.760347  
    1021A      2.761399  1022A      2.765981  1023A      2.776332  
    1024A      2.777817  1025A      2.783633  1026A      2.789847  
    1027A      2.795982  1028A      2.798953  1029A      2.801679  
    1030A      2.806725  1031A      2.809393  1032A      2.810284  
    1033A      2.814464  1034A      2.818090  1035A      2.824434  
    1036A      2.829079  1037A      2.830816  1038A      2.833462  
    1039A      2.842686  1040A      2.844959  1041A      2.847778  
    1042A      2.854081  1043A      2.859945  1044A      2.864143  
    1045A      2.871011  1046A      2.875461  1047A      2.878062  
    1048A      2.882669  1049A      2.882888  1050A      2.887387  
    1051A      2.890244  1052A      2.896645  1053A      2.899340  
    1054A      2.901042  1055A      2.907601  1056A      2.908320  
    1057A      2.911531  1058A      2.916394  1059A      2.924368  
    1060A      2.929783  1061A      2.933579  1062A      2.935012  
    1063A      2.942870  1064A      2.943908  1065A      2.947088  
    1066A      2.952911  1067A      2.955446  1068A      2.958351  
    1069A      2.959526  1070A      2.964654  1071A      2.969217  
    1072A      2.969922  1073A      2.981894  1074A      2.984754  
    1075A      2.984873  1076A      2.987526  1077A      2.993093  
    1078A      2.996826  1079A      3.005178  1080A      3.010923  
    1081A      3.013885  1082A      3.016689  1083A      3.024033  
    1084A      3.026345  1085A      3.033742  1086A      3.035010  
    1087A      3.041973  1088A      3.045071  1089A      3.045787  
    1090A      3.046662  1091A      3.050717  1092A      3.052191  
    1093A      3.060487  1094A      3.061671  1095A      3.065084  
    1096A      3.070165  1097A      3.074395  1098A      3.076585  
    1099A      3.082155  1100A      3.086123  1101A      3.086622  
    1102A      3.091130  1103A      3.093313  1104A      3.096910  
    1105A      3.104377  1106A      3.111214  1107A      3.114072  
    1108A      3.119414  1109A      3.120645  1110A      3.126826  
    1111A      3.128265  1112A      3.134112  1113A      3.137148  
    1114A      3.139940  1115A      3.146261  1116A      3.147984  
    1117A      3.149970  1118A      3.156254  1119A      3.161059  
    1120A      3.166434  1121A      3.169845  1122A      3.172264  
    1123A      3.175167  1124A      3.178335  1125A      3.181093  
    1126A      3.190773  1127A      3.193761  1128A      3.196779  
    1129A      3.201800  1130A      3.206379  1131A      3.210633  
    1132A      3.211991  1133A      3.214203  1134A      3.226674  
    1135A      3.230493  1136A      3.235392  1137A      3.236969  
    1138A      3.244335  1139A      3.247492  1140A      3.250507  
    1141A      3.259077  1142A      3.259638  1143A      3.265321  
    1144A      3.265887  1145A      3.271199  1146A      3.275336  
    1147A      3.278296  1148A      3.287615  1149A      3.289928  
    1150A      3.293077  1151A      3.301692  1152A      3.306963  
    1153A      3.308845  1154A      3.311318  1155A      3.316140  
    1156A      3.318628  1157A      3.326382  1158A      3.330490  
    1159A      3.333689  1160A      3.336819  1161A      3.342928  
    1162A      3.347869  1163A      3.350896  1164A      3.356951  
    1165A      3.359724  1166A      3.362576  1167A      3.364633  
    1168A      3.368259  1169A      3.370063  1170A      3.378917  
    1171A      3.381868  1172A      3.393015  1173A      3.393863  
    1174A      3.398845  1175A      3.402250  1176A      3.408651  
    1177A      3.413533  1178A      3.418839  1179A      3.420698  
    1180A      3.423632  1181A      3.428098  1182A      3.429741  
    1183A      3.439358  1184A      3.442493  1185A      3.448700  
    1186A      3.452209  1187A      3.458985  1188A      3.463298  
    1189A      3.465153  1190A      3.467699  1191A      3.474693  
    1192A      3.481432  1193A      3.484538  1194A      3.489770  
    1195A      3.492013  1196A      3.497014  1197A      3.501686  
    1198A      3.506304  1199A      3.510287  1200A      3.512861  
    1201A      3.516006  1202A      3.520731  1203A      3.525670  
    1204A      3.530944  1205A      3.534871  1206A      3.539205  
    1207A      3.544943  1208A      3.549277  1209A      3.552953  
    1210A      3.562199  1211A      3.574545  1212A      3.575556  
    1213A      3.577391  1214A      3.583958  1215A      3.587468  
    1216A      3.594693  1217A      3.599796  1218A      3.607194  
    1219A      3.608012  1220A      3.614238  1221A      3.619739  
    1222A      3.621311  1223A      3.622135  1224A      3.624999  
    1225A      3.634982  1226A      3.636399  1227A      3.645481  
    1228A      3.650158  1229A      3.658200  1230A      3.661170  
    1231A      3.666672  1232A      3.675778  1233A      3.677292  
    1234A      3.683137  1235A      3.690578  1236A      3.694353  
    1237A      3.699868  1238A      3.702640  1239A      3.708571  
    1240A      3.714246  1241A      3.715175  1242A      3.720263  
    1243A      3.724396  1244A      3.728716  1245A      3.732133  
    1246A      3.736541  1247A      3.740834  1248A      3.744714  
    1249A      3.748772  1250A      3.750238  1251A      3.759454  
    1252A      3.763485  1253A      3.768118  1254A      3.775702  
    1255A      3.781303  1256A      3.790565  1257A      3.796242  
    1258A      3.799869  1259A      3.805929  1260A      3.808985  
    1261A      3.816122  1262A      3.819986  1263A      3.822268  
    1264A      3.829756  1265A      3.833229  1266A      3.837908  
    1267A      3.852351  1268A      3.858865  1269A      3.862607  
    1270A      3.865833  1271A      3.869676  1272A      3.879852  
    1273A      3.884199  1274A      3.888589  1275A      3.893155  
    1276A      3.901157  1277A      3.905419  1278A      3.908687  
    1279A      3.910211  1280A      3.912516  1281A      3.920852  
    1282A      3.923321  1283A      3.927910  1284A      3.934446  
    1285A      3.939705  1286A      3.942586  1287A      3.946785  
    1288A      3.951006  1289A      3.954773  1290A      3.960518  
    1291A      3.966876  1292A      3.978042  1293A      3.979273  
    1294A      3.983939  1295A      3.987784  1296A      3.993138  
    1297A      3.996379  1298A      4.002001  1299A      4.009324  
    1300A      4.011251  1301A      4.015911  1302A      4.019923  
    1303A      4.027525  1304A      4.031103  1305A      4.033830  
    1306A      4.038045  1307A      4.044327  1308A      4.046095  
    1309A      4.047777  1310A      4.052155  1311A      4.056206  
    1312A      4.060243  1313A      4.068518  1314A      4.071534  
    1315A      4.078614  1316A      4.083974  1317A      4.089013  
    1318A      4.094373  1319A      4.095786  1320A      4.100174  
    1321A      4.106490  1322A      4.112030  1323A      4.113037  
    1324A      4.122634  1325A      4.126573  1326A      4.128234  
    1327A      4.134371  1328A      4.135752  1329A      4.140490  
    1330A      4.148344  1331A      4.151136  1332A      4.153278  
    1333A      4.158740  1334A      4.164540  1335A      4.171714  
    1336A      4.183138  1337A      4.187038  1338A      4.188579  
    1339A      4.195184  1340A      4.200597  1341A      4.201483  
    1342A      4.202926  1343A      4.209951  1344A      4.215935  
    1345A      4.216726  1346A      4.225907  1347A      4.229310  
    1348A      4.235827  1349A      4.238203  1350A      4.243212  
    1351A      4.248808  1352A      4.253066  1353A      4.258769  
    1354A      4.265498  1355A      4.267619  1356A      4.271967  
    1357A      4.274779  1358A      4.283484  1359A      4.286352  
    1360A      4.291719  1361A      4.297070  1362A      4.304873  
    1363A      4.307287  1364A      4.308763  1365A      4.313300  
    1366A      4.317123  1367A      4.318390  1368A      4.325900  
    1369A      4.330027  1370A      4.332748  1371A      4.342640  
    1372A      4.350539  1373A      4.353618  1374A      4.360782  
    1375A      4.362799  1376A      4.368021  1377A      4.372545  
    1378A      4.377927  1379A      4.385149  1380A      4.392712  
    1381A      4.400852  1382A      4.404689  1383A      4.409950  
    1384A      4.411107  1385A      4.417946  1386A      4.419609  
    1387A      4.428213  1388A      4.432374  1389A      4.440200  
    1390A      4.443890  1391A      4.451789  1392A      4.458020  
    1393A      4.459114  1394A      4.462568  1395A      4.466005  
    1396A      4.470374  1397A      4.475256  1398A      4.475841  
    1399A      4.482618  1400A      4.485396  1401A      4.491210  
    1402A      4.492715  1403A      4.501703  1404A      4.507171  
    1405A      4.509705  1406A      4.513552  1407A      4.520631  
    1408A      4.525919  1409A      4.530323  1410A      4.533919  
    1411A      4.539273  1412A      4.544084  1413A      4.549174  
    1414A      4.552824  1415A      4.557313  1416A      4.558970  
    1417A      4.566458  1418A      4.568244  1419A      4.574543  
    1420A      4.579011  1421A      4.580855  1422A      4.588113  
    1423A      4.589619  1424A      4.595783  1425A      4.600835  
    1426A      4.603901  1427A      4.605715  1428A      4.611608  
    1429A      4.614423  1430A      4.620166  1431A      4.625118  
    1432A      4.628392  1433A      4.633462  1434A      4.634701  
    1435A      4.641775  1436A      4.644357  1437A      4.646877  
    1438A      4.651682  1439A      4.652826  1440A      4.657751  
    1441A      4.664657  1442A      4.666195  1443A      4.671557  
    1444A      4.677203  1445A      4.684253  1446A      4.685554  
    1447A      4.691395  1448A      4.695677  1449A      4.701728  
    1450A      4.703702  1451A      4.709736  1452A      4.711682  
    1453A      4.712920  1454A      4.720619  1455A      4.727648  
    1456A      4.729920  1457A      4.734584  1458A      4.738671  
    1459A      4.744409  1460A      4.747899  1461A      4.750863  
    1462A      4.757590  1463A      4.762474  1464A      4.766374  
    1465A      4.769687  1466A      4.773886  1467A      4.778258  
    1468A      4.779985  1469A      4.786576  1470A      4.790057  
    1471A      4.794424  1472A      4.797581  1473A      4.804677  
    1474A      4.806264  1475A      4.813807  1476A      4.821053  
    1477A      4.822268  1478A      4.824435  1479A      4.831305  
    1480A      4.837486  1481A      4.846753  1482A      4.849056  
    1483A      4.855739  1484A      4.862463  1485A      4.867385  
    1486A      4.869762  1487A      4.877297  1488A      4.884406  
    1489A      4.890752  1490A      4.894807  1491A      4.897822  
    1492A      4.902142  1493A      4.909501  1494A      4.911957  
    1495A      4.918079  1496A      4.922343  1497A      4.926384  
    1498A      4.930171  1499A      4.935353  1500A      4.942006  
    1501A      4.945692  1502A      4.957855  1503A      4.958746  
    1504A      4.961110  1505A      4.973579  1506A      4.976935  
    1507A      4.984193  1508A      4.988354  1509A      4.993025  
    1510A      4.998433  1511A      5.000247  1512A      5.006104  
    1513A      5.010892  1514A      5.014983  1515A      5.021286  
    1516A      5.031291  1517A      5.041961  1518A      5.043628  
    1519A      5.045391  1520A      5.049515  1521A      5.055045  
    1522A      5.060219  1523A      5.063510  1524A      5.071586  
    1525A      5.082461  1526A      5.098014  1527A      5.100627  
    1528A      5.104195  1529A      5.109448  1530A      5.114480  
    1531A      5.119579  1532A      5.134128  1533A      5.137290  
    1534A      5.143537  1535A      5.147999  1536A      5.159953  
    1537A      5.164060  1538A      5.169451  1539A      5.174704  
    1540A      5.183934  1541A      5.187469  1542A      5.192985  
    1543A      5.196269  1544A      5.202458  1545A      5.212518  
    1546A      5.215319  1547A      5.226830  1548A      5.235319  
    1549A      5.236456  1550A      5.245955  1551A      5.248337  
    1552A      5.257127  1553A      5.265054  1554A      5.271421  
    1555A      5.275445  1556A      5.282166  1557A      5.287201  
    1558A      5.292178  1559A      5.294052  1560A      5.302323  
    1561A      5.304539  1562A      5.317144  1563A      5.326733  
    1564A      5.335403  1565A      5.338242  1566A      5.341580  
    1567A      5.361090  1568A      5.371937  1569A      5.386380  
    1570A      5.392869  1571A      5.398957  1572A      5.405890  
    1573A      5.413802  1574A      5.424793  1575A      5.434544  
    1576A      5.437030  1577A      5.440718  1578A      5.448337  
    1579A      5.455796  1580A      5.460396  1581A      5.487320  
    1582A      5.496787  1583A      5.501075  1584A      5.506543  
    1585A      5.514298  1586A      5.520023  1587A      5.530888  
    1588A      5.533638  1589A      5.547817  1590A      5.560080  
    1591A      5.570839  1592A      5.576121  1593A      5.586729  
    1594A      5.594922  1595A      5.600732  1596A      5.608459  
    1597A      5.610171  1598A      5.621153  1599A      5.629317  
    1600A      5.635597  1601A      5.645865  1602A      5.651015  
    1603A      5.665556  1604A      5.670752  1605A      5.682331  
    1606A      5.694012  1607A      5.698431  1608A      5.713116  
    1609A      5.722742  1610A      5.730058  1611A      5.737943  
    1612A      5.749117  1613A      5.754045  1614A      5.757640  
    1615A      5.759215  1616A      5.767388  1617A      5.770800  
    1618A      5.780108  1619A      5.792124  1620A      5.797020  
    1621A      5.818131  1622A      5.823139  1623A      5.826482  
    1624A      5.831812  1625A      5.838452  1626A      5.851520  
    1627A      5.861481  1628A      5.870350  1629A      5.881192  
    1630A      5.892449  1631A      5.914557  1632A      5.922069  
    1633A      5.928977  1634A      5.943953  1635A      5.962417  
    1636A      5.965861  1637A      5.982074  1638A      5.983960  
    1639A      5.991966  1640A      5.998792  1641A      6.007496  
    1642A      6.038501  1643A      6.042373  1644A      6.059171  
    1645A      6.065010  1646A      6.075514  1647A      6.082238  
    1648A      6.095840  1649A      6.116520  1650A      6.130378  
    1651A      6.142061  1652A      6.172499  1653A      6.189781  
    1654A      6.209742  1655A      6.218249  1656A      6.223003  
    1657A      6.253596  1658A      6.283972  1659A      6.289935  
    1660A      6.314029  1661A      6.321495  1662A      6.325962  
    1663A      6.336466  1664A      6.348912  1665A      6.358628  
    1666A      6.375029  1667A      6.375827  1668A      6.385246  
    1669A      6.403740  1670A      6.415009  1671A      6.422519  
    1672A      6.427524  1673A      6.441195  1674A      6.452200  
    1675A      6.461047  1676A      6.468263  1677A      6.470808  
    1678A      6.489398  1679A      6.499354  1680A      6.500885  
    1681A      6.520922  1682A      6.537640  1683A      6.549589  
    1684A      6.559659  1685A      6.560380  1686A      6.571100  
    1687A      6.585118  1688A      6.599015  1689A      6.607070  
    1690A      6.617287  1691A      6.621698  1692A      6.633380  
    1693A      6.650846  1694A      6.657709  1695A      6.663467  
    1696A      6.669726  1697A      6.681075  1698A      6.682224  
    1699A      6.690209  1700A      6.695899  1701A      6.699143  
    1702A      6.716590  1703A      6.721550  1704A      6.736863  
    1705A      6.753634  1706A      6.757426  1707A      6.769885  
    1708A      6.773406  1709A      6.787118  1710A      6.792533  
    1711A      6.797924  1712A      6.810346  1713A      6.823366  
    1714A      6.829184  1715A      6.837845  1716A      6.841178  
    1717A      6.849293  1718A      6.860594  1719A      6.867748  
    1720A      6.879345  1721A      6.880249  1722A      6.887341  
    1723A      6.892360  1724A      6.893988  1725A      6.906247  
    1726A      6.909537  1727A      6.915514  1728A      6.925274  
    1729A      6.933553  1730A      6.936552  1731A      6.944238  
    1732A      6.951683  1733A      6.955618  1734A      6.964998  
    1735A      6.967840  1736A      6.971278  1737A      6.985445  
    1738A      6.987877  1739A      6.989918  1740A      6.997062  
    1741A      7.004296  1742A      7.013204  1743A      7.018322  
    1744A      7.022354  1745A      7.028551  1746A      7.034753  
    1747A      7.046368  1748A      7.049959  1749A      7.055656  
    1750A      7.062125  1751A      7.063375  1752A      7.073358  
    1753A      7.080222  1754A      7.082074  1755A      7.090293  
    1756A      7.092654  1757A      7.093348  1758A      7.099208  
    1759A      7.107467  1760A      7.112393  1761A      7.125160  
    1762A      7.133281  1763A      7.136444  1764A      7.140959  
    1765A      7.150468  1766A      7.154018  1767A      7.162762  
    1768A      7.168376  1769A      7.176959  1770A      7.186433  
    1771A      7.189063  1772A      7.192577  1773A      7.200266  
    1774A      7.204510  1775A      7.208652  1776A      7.212122  
    1777A      7.216795  1778A      7.222194  1779A      7.230804  
    1780A      7.232675  1781A      7.243527  1782A      7.254073  
    1783A      7.257487  1784A      7.264416  1785A      7.266914  
    1786A      7.273381  1787A      7.279972  1788A      7.281255  
    1789A      7.290634  1790A      7.295525  1791A      7.301360  
    1792A      7.306721  1793A      7.314806  1794A      7.321351  
    1795A      7.326575  1796A      7.328905  1797A      7.339368  
    1798A      7.345021  1799A      7.350595  1800A      7.351519  
    1801A      7.358956  1802A      7.364665  1803A      7.374391  
    1804A      7.378389  1805A      7.381992  1806A      7.393375  
    1807A      7.395000  1808A      7.408990  1809A      7.410455  
    1810A      7.415232  1811A      7.417903  1812A      7.432788  
    1813A      7.443681  1814A      7.456150  1815A      7.460319  
    1816A      7.467144  1817A      7.473908  1818A      7.476780  
    1819A      7.488132  1820A      7.497207  1821A      7.509280  
    1822A      7.513285  1823A      7.523649  1824A      7.532564  
    1825A      7.547369  1826A      7.550886  1827A      7.568532  
    1828A      7.575493  1829A      7.576878  1830A      7.584194  
    1831A      7.591391  1832A      7.594193  1833A      7.602467  
    1834A      7.607938  1835A      7.617895  1836A      7.624945  
    1837A      7.630729  1838A      7.636063  1839A      7.649440  
    1840A      7.656438  1841A      7.657601  1842A      7.664476  
    1843A      7.668373  1844A      7.681949  1845A      7.692090  
    1846A      7.697348  1847A      7.703831  1848A      7.715054  
    1849A      7.729331  1850A      7.730836  1851A      7.743654  
    1852A      7.748243  1853A      7.756201  1854A      7.761011  
    1855A      7.772537  1856A      7.779606  1857A      7.783032  
    1858A      7.794876  1859A      7.798049  1860A      7.807679  
    1861A      7.812561  1862A      7.818810  1863A      7.827733  
    1864A      7.834687  1865A      7.840754  1866A      7.844546  
    1867A      7.854314  1868A      7.859421  1869A      7.867421  
    1870A      7.876900  1871A      7.877485  1872A      7.881827  
    1873A      7.894337  1874A      7.898718  1875A      7.908355  
    1876A      7.914710  1877A      7.919192  1878A      7.926333  
    1879A      7.941054  1880A      7.948351  1881A      7.952226  
    1882A      7.963653  1883A      7.979852  1884A      7.987100  
    1885A      7.991085  1886A      8.006466  1887A      8.010553  
    1888A      8.018810  1889A      8.032050  1890A      8.039038  
    1891A      8.046797  1892A      8.052351  1893A      8.064584  
    1894A      8.066905  1895A      8.072093  1896A      8.076315  
    1897A      8.085872  1898A      8.092712  1899A      8.110765  
    1900A      8.123853  1901A      8.129258  1902A      8.146168  
    1903A      8.147424  1904A      8.156134  1905A      8.159956  
    1906A      8.166770  1907A      8.176998  1908A      8.188074  
    1909A      8.195719  1910A      8.202939  1911A      8.212018  
    1912A      8.218309  1913A      8.223180  1914A      8.230216  
    1915A      8.239729  1916A      8.248715  1917A      8.255870  
    1918A      8.261714  1919A      8.270731  1920A      8.273833  
    1921A      8.277957  1922A      8.282980  1923A      8.291747  
    1924A      8.308777  1925A      8.311207  1926A      8.312909  
    1927A      8.314186  1928A      8.326623  1929A      8.334193  
    1930A      8.340478  1931A      8.351355  1932A      8.361403  
    1933A      8.369290  1934A      8.376373  1935A      8.382214  
    1936A      8.396009  1937A      8.410747  1938A      8.412829  
    1939A      8.424093  1940A      8.441410  1941A      8.450654  
    1942A      8.458675  1943A      8.469587  1944A      8.480575  
    1945A      8.484321  1946A      8.487590  1947A      8.497953  
    1948A      8.501544  1949A      8.518036  1950A      8.523693  
    1951A      8.532270  1952A      8.533160  1953A      8.553565  
    1954A      8.554645  1955A      8.574838  1956A      8.588114  
    1957A      8.593650  1958A      8.600921  1959A      8.603794  
    1960A      8.608830  1961A      8.614337  1962A      8.624287  
    1963A      8.633489  1964A      8.641739  1965A      8.655469  
    1966A      8.656922  1967A      8.667182  1968A      8.674712  
    1969A      8.677810  1970A      8.688185  1971A      8.692477  
    1972A      8.700040  1973A      8.706201  1974A      8.710352  
    1975A      8.716932  1976A      8.720162  1977A      8.729964  
    1978A      8.734858  1979A      8.736696  1980A      8.744009  
    1981A      8.753967  1982A      8.763624  1983A      8.769077  
    1984A      8.780077  1985A      8.784907  1986A      8.792738  
    1987A      8.803253  1988A      8.807782  1989A      8.812883  
    1990A      8.818401  1991A      8.827254  1992A      8.829032  
    1993A      8.831232  1994A      8.835228  1995A      8.852353  
    1996A      8.856541  1997A      8.862193  1998A      8.875256  
    1999A      8.884237  2000A      8.893207  2001A      8.900574  
    2002A      8.910285  2003A      8.915945  2004A      8.922355  
    2005A      8.928998  2006A      8.941699  2007A      8.944258  
    2008A      8.958727  2009A      8.974371  2010A      8.976555  
    2011A      8.985227  2012A      8.992902  2013A      8.994701  
    2014A      9.002334  2015A      9.006541  2016A      9.011535  
    2017A      9.016997  2018A      9.025896  2019A      9.026412  
    2020A      9.045389  2021A      9.051916  2022A      9.063067  
    2023A      9.072190  2024A      9.077612  2025A      9.084349  
    2026A      9.087315  2027A      9.101602  2028A      9.114194  
    2029A      9.122798  2030A      9.130275  2031A      9.139168  
    2032A      9.144252  2033A      9.170919  2034A      9.179948  
    2035A      9.188921  2036A      9.197718  2037A      9.204095  
    2038A      9.206968  2039A      9.212736  2040A      9.221832  
    2041A      9.236215  2042A      9.241171  2043A      9.249612  
    2044A      9.256053  2045A      9.276471  2046A      9.282727  
    2047A      9.288513  2048A      9.300132  2049A      9.311948  
    2050A      9.313598  2051A      9.322371  2052A      9.334479  
    2053A      9.339078  2054A      9.361708  2055A      9.377572  
    2056A      9.382489  2057A      9.398205  2058A      9.402335  
    2059A      9.404984  2060A      9.409476  2061A      9.417080  
    2062A      9.424562  2063A      9.425863  2064A      9.433969  
    2065A      9.443016  2066A      9.459283  2067A      9.464279  
    2068A      9.472044  2069A      9.480548  2070A      9.490290  
    2071A      9.493664  2072A      9.502696  2073A      9.506932  
    2074A      9.521986  2075A      9.535535  2076A      9.539489  
    2077A      9.549939  2078A      9.551902  2079A      9.553968  
    2080A      9.572875  2081A      9.590284  2082A      9.592869  
    2083A      9.602528  2084A      9.607163  2085A      9.614322  
    2086A      9.621341  2087A      9.635507  2088A      9.644806  
    2089A      9.654594  2090A      9.663193  2091A      9.669254  
    2092A      9.677193  2093A      9.692296  2094A      9.693792  
    2095A      9.705087  2096A      9.718861  2097A      9.731905  
    2098A      9.732815  2099A      9.735140  2100A      9.759097  
    2101A      9.761388  2102A      9.768430  2103A      9.773423  
    2104A      9.777948  2105A      9.794604  2106A      9.804561  
    2107A      9.806071  2108A      9.810716  2109A      9.821417  
    2110A      9.823677  2111A      9.837469  2112A      9.845349  
    2113A      9.853746  2114A      9.859379  2115A      9.860800  
    2116A      9.870121  2117A      9.876120  2118A      9.889246  
    2119A      9.895355  2120A      9.903140  2121A      9.912135  
    2122A      9.914635  2123A      9.914851  2124A      9.916837  
    2125A      9.928294  2126A      9.935530  2127A      9.945129  
    2128A      9.957310  2129A      9.969165  2130A      9.983413  
    2131A      9.996231  2132A     10.018040  2133A     10.028527  
    2134A     10.040788  2135A     10.043252  2136A     10.056730  
    2137A     10.061501  2138A     10.071187  2139A     10.084739  
    2140A     10.095912  2141A     10.117705  2142A     10.134410  
    2143A     10.142656  2144A     10.145201  2145A     10.149462  
    2146A     10.155791  2147A     10.166078  2148A     10.173361  
    2149A     10.179402  2150A     10.195753  2151A     10.199762  
    2152A     10.205827  2153A     10.208989  2154A     10.220247  
    2155A     10.229405  2156A     10.247734  2157A     10.252934  
    2158A     10.262340  2159A     10.268404  2160A     10.277402  
    2161A     10.284477  2162A     10.286164  2163A     10.292920  
    2164A     10.295672  2165A     10.297837  2166A     10.301673  
    2167A     10.310193  2168A     10.315736  2169A     10.325183  
    2170A     10.335270  2171A     10.337264  2172A     10.350367  
    2173A     10.356915  2174A     10.361099  2175A     10.364239  
    2176A     10.378654  2177A     10.393057  2178A     10.408223  
    2179A     10.411971  2180A     10.419634  2181A     10.423899  
    2182A     10.437025  2183A     10.446948  2184A     10.453784  
    2185A     10.458419  2186A     10.470029  2187A     10.471004  
    2188A     10.476724  2189A     10.495307  2190A     10.506237  
    2191A     10.527461  2192A     10.566864  2193A     10.581235  
    2194A     10.591203  2195A     10.605859  2196A     10.619916  
    2197A     10.659438  2198A     10.670755  2199A     10.702145  
    2200A     10.705407  2201A     10.735059  2202A     10.754414  
    2203A     10.759615  2204A     10.765763  2205A     10.769148  
    2206A     10.784188  2207A     10.808083  2208A     10.815957  
    2209A     10.829086  2210A     10.841388  2211A     10.844789  
    2212A     10.870924  2213A     10.876705  2214A     10.883528  
    2215A     10.889337  2216A     10.893054  2217A     10.896270  
    2218A     10.906789  2219A     10.948259  2220A     10.952876  
    2221A     10.956912  2222A     10.975411  2223A     10.989679  
    2224A     11.004763  2225A     11.016982  2226A     11.029587  
    2227A     11.036882  2228A     11.040503  2229A     11.051358  
    2230A     11.066388  2231A     11.072999  2232A     11.076185  
    2233A     11.089104  2234A     11.107367  2235A     11.119482  
    2236A     11.124450  2237A     11.128533  2238A     11.138254  
    2239A     11.145046  2240A     11.147951  2241A     11.159027  
    2242A     11.171131  2243A     11.189854  2244A     11.195115  
    2245A     11.204336  2246A     11.217358  2247A     11.220953  
    2248A     11.227050  2249A     11.236899  2250A     11.240877  
    2251A     11.247310  2252A     11.253823  2253A     11.266541  
    2254A     11.276821  2255A     11.284324  2256A     11.289826  
    2257A     11.314029  2258A     11.318130  2259A     11.325325  
    2260A     11.339573  2261A     11.351019  2262A     11.374507  
    2263A     11.384895  2264A     11.398886  2265A     11.416732  
    2266A     11.425266  2267A     11.440075  2268A     11.457141  
    2269A     11.462965  2270A     11.494354  2271A     11.496297  
    2272A     11.523193  2273A     11.529702  2274A     11.541239  
    2275A     11.544732  2276A     11.561220  2277A     11.568650  
    2278A     11.598783  2279A     11.603929  2280A     11.605675  
    2281A     11.610176  2282A     11.613371  2283A     11.635589  
    2284A     11.652816  2285A     11.663837  2286A     11.675177  
    2287A     11.687788  2288A     11.690911  2289A     11.704750  
    2290A     11.711664  2291A     11.715504  2292A     11.736984  
    2293A     11.745760  2294A     11.784449  2295A     11.790034  
    2296A     11.792419  2297A     11.803412  2298A     11.813485  
    2299A     11.830582  2300A     11.862042  2301A     11.866293  
    2302A     11.890603  2303A     11.904235  2304A     11.926566  
    2305A     11.931324  2306A     11.948414  2307A     11.953296  
    2308A     11.963572  2309A     11.976138  2310A     11.996697  
    2311A     12.003832  2312A     12.008931  2313A     12.020657  
    2314A     12.039687  2315A     12.065707  2316A     12.076752  
    2317A     12.106428  2318A     12.156372  2319A     12.166390  
    2320A     12.175803  2321A     12.193480  2322A     12.216259  
    2323A     12.223547  2324A     12.232935  2325A     12.238862  
    2326A     12.241456  2327A     12.260681  2328A     12.268673  
    2329A     12.278137  2330A     12.279055  2331A     12.287126  
    2332A     12.307333  2333A     12.312834  2334A     12.327488  
    2335A     12.346351  2336A     12.346975  2337A     12.367497  
    2338A     12.380635  2339A     12.407320  2340A     12.416223  
    2341A     12.428779  2342A     12.446793  2343A     12.470282  
    2344A     12.499343  2345A     12.524943  2346A     12.545162  
    2347A     12.559218  2348A     12.589833  2349A     12.599726  
    2350A     12.603904  2351A     12.613872  2352A     12.671675  
    2353A     12.722857  2354A     12.743160  2355A     12.755076  
    2356A     12.777472  2357A     12.794687  2358A     12.800428  
    2359A     12.807654  2360A     12.826956  2361A     12.847941  
    2362A     12.860562  2363A     12.880331  2364A     12.888347  
    2365A     12.968438  2366A     12.976588  2367A     12.989204  
    2368A     12.995515  2369A     12.996785  2370A     13.009376  
    2371A     13.046777  2372A     13.069830  2373A     13.072259  
    2374A     13.077423  2375A     13.082887  2376A     13.096653  
    2377A     13.115303  2378A     13.126972  2379A     13.140563  
    2380A     13.159129  2381A     13.172134  2382A     13.193987  
    2383A     13.239558  2384A     13.253447  2385A     13.277943  
    2386A     13.294985  2387A     13.336051  2388A     13.350520  
    2389A     13.357493  2390A     13.358455  2391A     13.396373  
    2392A     13.401731  2393A     13.410007  2394A     13.429911  
    2395A     13.434730  2396A     13.459972  2397A     13.485536  
    2398A     13.504845  2399A     13.511170  2400A     13.519505  
    2401A     13.534163  2402A     13.539882  2403A     13.547564  
    2404A     13.553908  2405A     13.579342  2406A     13.598922  
    2407A     13.616427  2408A     13.649705  2409A     13.686278  
    2410A     13.689164  2411A     13.713628  2412A     13.734063  
    2413A     13.781474  2414A     13.807451  2415A     13.869455  
    2416A     13.905783  2417A     13.910651  2418A     13.955783  
    2419A     14.030438  2420A     14.068147  2421A     14.069797  
    2422A     14.079786  2423A     14.148547  2424A     14.152355  
    2425A     14.182817  2426A     14.267624  2427A     14.384352  
    2428A     14.400106  2429A     14.506539  2430A     14.623761  
    2431A     14.631638  2432A     14.648468  2433A     14.660362  
    2434A     14.665087  2435A     14.697789  2436A     14.794527  
    2437A     14.896804  2438A     14.989501  2439A     15.068618  
    2440A     15.119306  2441A     15.161911  2442A     15.174261  
    2443A     15.198304  2444A     15.248121  2445A     15.366754  
    2446A     15.389816  2447A     15.397379  2448A     15.432604  
    2449A     15.551677  2450A     15.564490  2451A     15.590007  
    2452A     15.594864  2453A     17.537126  2454A     17.680415  
    2455A     26.685589  2456A     27.000175  2457A     27.238927  
    2458A     27.410678  2459A     27.437037  2460A     28.088955  
    2461A     28.149116  2462A     28.456317  2463A     28.472952  
    2464A     28.642954  2465A     36.141207  2466A     36.347706  
    2467A     36.406374  2468A     44.338537  2469A     44.649981  
    2470A     44.690176  2471A     45.007013  2472A     45.109882  
    2473A     46.318800  2474A     46.609413  

    Final Occupation by Irrep:
              A 
    DOCC [    78 ]

  Energy converged.

  @DF-RHF Final Energy: -1077.50255667787133

   => Energetics <=

    Nuclear Repulsion Energy =           1638.2696123684520444
    One-Electron Energy =               -4734.8941349874303341
    Two-Electron Energy =                2019.1219659411071916
    Total Energy =                      -1077.5025566778713255



Properties will be evaluated at   0.000000,   0.000000,   0.000000 Bohr

Properties computed using the SCF density matrix

  Nuclear Dipole Moment: (a.u.)
     X:     9.1337      Y:     7.4118      Z:    -1.1525

  Electronic Dipole Moment: (a.u.)
     X:    -6.9461      Y:    -5.0796      Z:     2.0754

  Dipole Moment: (a.u.)
     X:     2.1875      Y:     2.3322      Z:     0.9229     Total:     3.3281

  Dipole Moment: (Debye)
     X:     5.5601      Y:     5.9280      Z:     2.3459     Total:     8.4592


*** tstop() called on hex15 at Wed Mar  7 07:48:13 2018
Module time:
	user time   =    8834.71 seconds =     147.25 minutes
	system time =     715.08 seconds =      11.92 minutes
	total time  =       5622 seconds =      93.70 minutes
Total time:
	user time   =    8834.71 seconds =     147.25 minutes
	system time =     715.08 seconds =      11.92 minutes
	total time  =       5622 seconds =      93.70 minutes

*** Psi4 exiting successfully. Buy a developer a beer!
