
    -----------------------------------------------------------------------
          Psi4: An Open-Source Ab Initio Electronic Structure Package
                               Psi4 1.2a1.dev875 

                         Git: Rev {symm_JK} 0ea9481 dirty


    R. M. Parrish, L. A. Burns, D. G. A. Smith, A. C. Simmonett,
    A. E. DePrince III, E. G. Hohenstein, U. Bozkaya, A. Yu. Sokolov,
    R. Di Remigio, R. M. Richard, J. F. Gonthier, A. M. James,
    H. R. McAlexander, A. Kumar, M. Saitow, X. Wang, B. P. Pritchard,
    P. Verma, H. F. Schaefer III, K. Patkowski, R. A. King, E. F. Valeev,
    F. A. Evangelista, J. M. Turney, T. D. Crawford, and C. D. Sherrill,
    J. Chem. Theory Comput. 13(7) pp 3185--3197 (2017).
    (doi: 10.1021/acs.jctc.7b00174)

    -----------------------------------------------------------------------


    Psi4 started on: Wednesday, 07 March 2018 05:23AM

    Process ID:  18045
    PSIDATADIR: /theoryfs2/ds/schieber/Gits/mspsi4/objdir3/stage/usr/local/psi4/share/psi4
    Memory:     500.0 MiB
    Threads:    6
    
  ==> Input File <==

--------------------------------------------------------------------------
memory 60 Gb

molecule protein_30 {
0 1
 N   18.626  30.444   6.627
 C   17.853  29.516   5.837
 C   16.945  30.292   4.886
 O   15.843  30.678   5.237
 C   17.047  28.642   6.811
 C   16.316  27.513   6.146
 O   16.236  27.458   4.905
 O   15.762  26.696   6.882
 N   17.407  27.054  -1.437
 C   17.227  26.751  -0.026
 C   18.555  26.446   0.653
 O   19.003  25.309   0.692
 C   16.258  25.572   0.084
 C   15.759  25.336   1.493
 O   16.399  25.780   2.453
 O   14.731  24.675   1.645
 H   18.180  30.990   7.295
 H   18.510  28.835   5.249
 H   16.336  29.276   7.377
 H   17.778  28.186   7.516
 H   15.845  26.702   7.843
 H   17.860  26.421  -2.023
 H   16.724  27.595   0.500
 H   16.724  24.663  -0.337
 H   15.363  25.845  -0.519
 H   16.737  25.171   3.109
 H   19.646  30.419   6.619
 H   17.295  30.415   3.850
 H   16.947  27.858  -1.864
 H   19.060  27.284   1.155
}

set {
basis aug-cc-pvqz
scf_type df
guess sad
DF_SCF_TYPE SYMM_JK
}

energy('HF')
--------------------------------------------------------------------------

  Memory set to  55.879 GiB by Python driver.

*** tstart() called on hex15
*** at Wed Mar  7 05:23:43 2018

   => Loading Basis Set <=

    Name: AUG-CC-PVQZ
    Role: ORBITAL
    Keyword: BASIS
    atoms 1, 9                   entry N          line   359 file /theoryfs2/ds/schieber/Gits/mspsi4/objdir3/stage/usr/local/psi4/share/psi4/basis/aug-cc-pvqz.gbs 
    atoms 2-3, 5-6, 10-11, 13-14 entry C          line   299 file /theoryfs2/ds/schieber/Gits/mspsi4/objdir3/stage/usr/local/psi4/share/psi4/basis/aug-cc-pvqz.gbs 
    atoms 4, 7-8, 12, 15-16      entry O          line   419 file /theoryfs2/ds/schieber/Gits/mspsi4/objdir3/stage/usr/local/psi4/share/psi4/basis/aug-cc-pvqz.gbs 
    atoms 17-30                  entry H          line    36 file /theoryfs2/ds/schieber/Gits/mspsi4/objdir3/stage/usr/local/psi4/share/psi4/basis/aug-cc-pvqz.gbs 


         ---------------------------------------------------------
                                   SCF
            by Justin Turney, Rob Parrish, Andy Simmonett
                             and Daniel Smith
                              RHF Reference
                        6 Threads,  57220 MiB Core
         ---------------------------------------------------------

  ==> Geometry <==

    Molecular point group: c1
    Full point group: C1

    Geometry (in Angstrom), charge = 0, multiplicity = 1:

       Center              X                  Y                   Z               Mass       
    ------------   -----------------  -----------------  -----------------  -----------------
           N          1.759981620253     3.071942570653     3.302034477710    14.003074004780
           C          0.986981620253     2.143942570653     2.512034477710    12.000000000000
           C          0.078981620253     2.919942570653     1.561034477710    12.000000000000
           O         -1.023018379747     3.305942570653     1.912034477710    15.994914619560
           C          0.180981620253     1.269942570653     3.486034477710    12.000000000000
           C         -0.550018379747     0.140942570653     2.821034477710    12.000000000000
           O         -0.630018379747     0.085942570653     1.580034477710    15.994914619560
           O         -1.104018379747    -0.676057429347     3.557034477710    15.994914619560
           N          0.540981620253    -0.318057429347    -4.761965522290    14.003074004780
           C          0.360981620253    -0.621057429347    -3.350965522290    12.000000000000
           C          1.688981620253    -0.926057429347    -2.671965522290    12.000000000000
           O          2.136981620253    -2.063057429347    -2.632965522290    15.994914619560
           C         -0.608018379747    -1.800057429347    -3.240965522290    12.000000000000
           C         -1.107018379747    -2.036057429347    -1.831965522290    12.000000000000
           O         -0.467018379747    -1.592057429347    -0.871965522290    15.994914619560
           O         -2.135018379747    -2.697057429347    -1.679965522290    15.994914619560
           H          1.313981620253     3.617942570653     3.970034477710     1.007825032070
           H          1.643981620253     1.462942570653     1.924034477710     1.007825032070
           H         -0.530018379747     1.903942570653     4.052034477710     1.007825032070
           H          0.911981620253     0.813942570653     4.191034477710     1.007825032070
           H         -1.021018379747    -0.670057429347     4.518034477710     1.007825032070
           H          0.993981620253    -0.951057429347    -5.347965522290     1.007825032070
           H         -0.142018379747     0.222942570653    -2.824965522290     1.007825032070
           H         -0.142018379747    -2.709057429347    -3.661965522290     1.007825032070
           H         -1.503018379747    -1.527057429347    -3.843965522290     1.007825032070
           H         -0.129018379747    -2.201057429347    -0.215965522290     1.007825032070
           H          2.779981620253     3.046942570653     3.294034477710     1.007825032070
           H          0.428981620253     3.042942570653     0.525034477710     1.007825032070
           H          0.080981620253     0.485942570653    -5.188965522290     1.007825032070
           H          2.193981620253    -0.088057429347    -2.169965522290     1.007825032070

  Running in c1 symmetry.

  Rotational constants: A =      0.02246  B =      0.00667  C =      0.00592 [cm^-1]
  Rotational constants: A =    673.47508  B =    199.82875  C =    177.40117 [MHz]
  Nuclear repulsion = 1089.601628930780862

  Charge       = 0
  Multiplicity = 1
  Electrons    = 124
  Nalpha       = 62
  Nbeta        = 62

  ==> Algorithm <==

  SCF Algorithm Type is DF.
  DIIS enabled.
  MOM disabled.
  Fractional occupation disabled.
  Guess Type is SAD.
  Energy threshold   = 1.00e-06
  Density threshold  = 1.00e-06
  Integral threshold = 0.00e+00

  ==> Primary Basis <==

  Basis Set: AUG-CC-PVQZ
    Blend: AUG-CC-PVQZ
    Number of shells: 516
    Number of basis function: 1924
    Number of Cartesian functions: 2450
    Spherical Harmonics?: true
    Max angular momentum: 4

   => Loading Basis Set <=

    Name: (AUG-CC-PVQZ AUX)
    Role: JKFIT
    Keyword: DF_BASIS_SCF
    atoms 1, 9                   entry N          line   248 file /theoryfs2/ds/schieber/Gits/mspsi4/objdir3/stage/usr/local/psi4/share/psi4/basis/aug-cc-pvqz-jkfit.gbs 
    atoms 2-3, 5-6, 10-11, 13-14 entry C          line   178 file /theoryfs2/ds/schieber/Gits/mspsi4/objdir3/stage/usr/local/psi4/share/psi4/basis/aug-cc-pvqz-jkfit.gbs 
    atoms 4, 7-8, 12, 15-16      entry O          line   318 file /theoryfs2/ds/schieber/Gits/mspsi4/objdir3/stage/usr/local/psi4/share/psi4/basis/aug-cc-pvqz-jkfit.gbs 
    atoms 17-30                  entry H          line    70 file /theoryfs2/ds/schieber/Gits/mspsi4/objdir3/stage/usr/local/psi4/share/psi4/basis/aug-cc-pvqz-jkfit.gbs 

  ==> Pre-Iterations <==

   -------------------------------------------------------
    Irrep   Nso     Nmo     Nalpha   Nbeta   Ndocc  Nsocc
   -------------------------------------------------------
     A       1924    1924       0       0       0       0
   -------------------------------------------------------
    Total    1924    1924      62      62      62       0
   -------------------------------------------------------

  ==> Integral Setup <==


    ==> DF_Helper memory announcement <==
        Turning off in-core AOs.  DF_Helper needs at least (86.501GB), but it only got (45GB)

    ==> DF_Helper <==
      nao           = 1924
      naux          = 3336
      Scwarz cutoff = 1.000000E-12
      mem (doubles) = 5625000000
      nthreads      = 6
      Algorithm     = STORE
      AO_core?      = 0
      MO_core?      = 0
      hold metric   = 0
      metric power  = -5.000000E-01
  Fitting condition = 1.000000E-12
  Mask sparsity (%) = (31.122791)


  Minimum eigenvalue in the overlap matrix is 7.2168691300E-07.
  Using Symmetric Orthogonalization.

  SCF Guess: Superposition of Atomic Densities via on-the-fly atomic UHF.

  ==> Iterations <==

                           Total Energy        Delta E     RMS |[F,P]|

   @DF-RHF iter   0:  -875.01174166004023   -8.75012e+02   9.58238e-03 
   @DF-RHF iter   1:  -868.92792270276834    6.08382e+00   1.26057e-03 
   @DF-RHF iter   2:  -869.31405528356083   -3.86133e-01   8.28027e-04 DIIS
   @DF-RHF iter   3:  -869.47081015486674   -1.56755e-01   1.95713e-04 DIIS
   @DF-RHF iter   4:  -869.49064571129566   -1.98356e-02   7.39401e-05 DIIS
   @DF-RHF iter   5:  -869.49397237203380   -3.32666e-03   2.95039e-05 DIIS
   @DF-RHF iter   6:  -869.49487522546269   -9.02853e-04   1.25595e-05 DIIS
   @DF-RHF iter   7:  -869.49506968676485   -1.94461e-04   4.61848e-06 DIIS
   @DF-RHF iter   8:  -869.49509604427146   -2.63575e-05   1.94874e-06 DIIS
   @DF-RHF iter   9:  -869.49510072602800   -4.68176e-06   9.79177e-07 DIIS
   @DF-RHF iter  10:  -869.49510189525984   -1.16923e-06   4.82573e-07 DIIS
   @DF-RHF iter  11:  -869.49510222290280   -3.27643e-07   1.81765e-07 DIIS

  ==> Post-Iterations <==

    Orbital Energies (a.u.)
    -----------------------

    Doubly Occupied:                                                      

       1A    -20.639540     2A    -20.592845     3A    -20.562346  
       4A    -20.557490     5A    -20.532296     6A    -20.508522  
       7A    -15.557992     8A    -15.547894     9A    -11.390022  
      10A    -11.359513    11A    -11.338276    12A    -11.335493  
      13A    -11.295593    14A    -11.284196    15A    -11.261963  
      16A    -11.232546    17A     -1.523250    18A     -1.490050  
      19A     -1.391922    20A     -1.389757    21A     -1.349975  
      22A     -1.326230    23A     -1.213685    24A     -1.198132  
      25A     -1.053471    26A     -1.038072    27A     -0.947913  
      28A     -0.930859    29A     -0.903298    30A     -0.865088  
      31A     -0.801024    32A     -0.789359    33A     -0.746361  
      34A     -0.726437    35A     -0.715576    36A     -0.689751  
      37A     -0.687366    38A     -0.686946    39A     -0.681049  
      40A     -0.658018    41A     -0.657324    42A     -0.647604  
      43A     -0.641119    44A     -0.628923    45A     -0.624387  
      46A     -0.617239    47A     -0.571733    48A     -0.558791  
      49A     -0.554195    50A     -0.530643    51A     -0.524992  
      52A     -0.515734    53A     -0.513671    54A     -0.499600  
      55A     -0.468814    56A     -0.458126    57A     -0.450504  
      58A     -0.443042    59A     -0.441129    60A     -0.429861  
      61A     -0.385519    62A     -0.373337  

    Virtual:                                                              

      63A      0.009419    64A      0.018411    65A      0.024506  
      66A      0.027703    67A      0.034927    68A      0.039408  
      69A      0.043961    70A      0.046378    71A      0.048157  
      72A      0.053204    73A      0.058965    74A      0.061164  
      75A      0.067113    76A      0.071126    77A      0.076397  
      78A      0.079811    79A      0.085390    80A      0.085923  
      81A      0.092989    82A      0.094577    83A      0.098745  
      84A      0.099254    85A      0.100758    86A      0.103378  
      87A      0.106334    88A      0.109233    89A      0.114513  
      90A      0.118237    91A      0.118660    92A      0.121732  
      93A      0.124277    94A      0.124899    95A      0.126595  
      96A      0.128921    97A      0.130927    98A      0.132026  
      99A      0.133002   100A      0.138622   101A      0.139579  
     102A      0.146939   103A      0.149466   104A      0.152968  
     105A      0.159553   106A      0.161014   107A      0.164581  
     108A      0.166775   109A      0.167761   110A      0.168867  
     111A      0.172192   112A      0.175770   113A      0.180715  
     114A      0.182774   115A      0.185229   116A      0.188819  
     117A      0.192433   118A      0.197561   119A      0.201655  
     120A      0.202316   121A      0.209048   122A      0.209958  
     123A      0.216657   124A      0.220847   125A      0.223598  
     126A      0.225179   127A      0.229953   128A      0.236613  
     129A      0.237044   130A      0.238172   131A      0.239298  
     132A      0.242685   133A      0.248061   134A      0.249651  
     135A      0.250366   136A      0.254080   137A      0.257813  
     138A      0.258035   139A      0.261016   140A      0.266015  
     141A      0.266970   142A      0.269442   143A      0.271896  
     144A      0.272621   145A      0.274728   146A      0.277708  
     147A      0.279270   148A      0.281356   149A      0.284713  
     150A      0.287943   151A      0.288745   152A      0.292661  
     153A      0.295992   154A      0.298423   155A      0.304155  
     156A      0.308409   157A      0.310207   158A      0.311089  
     159A      0.313818   160A      0.318580   161A      0.321378  
     162A      0.322223   163A      0.325226   164A      0.329039  
     165A      0.330538   166A      0.332365   167A      0.334784  
     168A      0.339488   169A      0.343384   170A      0.344912  
     171A      0.347889   172A      0.351175   173A      0.351570  
     174A      0.353727   175A      0.358209   176A      0.360041  
     177A      0.361696   178A      0.368771   179A      0.370590  
     180A      0.374769   181A      0.377507   182A      0.383863  
     183A      0.384629   184A      0.386721   185A      0.388110  
     186A      0.392321   187A      0.394445   188A      0.398266  
     189A      0.403069   190A      0.404762   191A      0.407689  
     192A      0.409826   193A      0.413101   194A      0.413975  
     195A      0.419381   196A      0.422126   197A      0.423704  
     198A      0.427461   199A      0.430635   200A      0.432604  
     201A      0.434430   202A      0.439703   203A      0.444381  
     204A      0.446161   205A      0.450222   206A      0.451099  
     207A      0.452106   208A      0.454847   209A      0.456312  
     210A      0.459890   211A      0.463721   212A      0.465182  
     213A      0.468303   214A      0.469673   215A      0.473392  
     216A      0.475485   217A      0.477117   218A      0.478809  
     219A      0.480648   220A      0.483371   221A      0.486366  
     222A      0.489943   223A      0.491946   224A      0.494222  
     225A      0.498317   226A      0.500715   227A      0.503463  
     228A      0.508470   229A      0.509633   230A      0.514001  
     231A      0.515825   232A      0.518918   233A      0.521207  
     234A      0.527418   235A      0.529108   236A      0.530321  
     237A      0.536176   238A      0.542736   239A      0.545084  
     240A      0.551115   241A      0.551550   242A      0.553799  
     243A      0.555488   244A      0.559977   245A      0.562266  
     246A      0.564463   247A      0.565878   248A      0.572803  
     249A      0.575466   250A      0.578441   251A      0.579907  
     252A      0.586318   253A      0.590319   254A      0.592651  
     255A      0.596982   256A      0.599814   257A      0.604091  
     258A      0.608388   259A      0.613005   260A      0.617116  
     261A      0.620885   262A      0.621484   263A      0.627138  
     264A      0.631448   265A      0.631825   266A      0.637713  
     267A      0.639120   268A      0.642857   269A      0.645628  
     270A      0.647938   271A      0.653697   272A      0.657814  
     273A      0.662276   274A      0.665750   275A      0.666367  
     276A      0.670841   277A      0.672286   278A      0.674817  
     279A      0.678054   280A      0.684535   281A      0.685677  
     282A      0.689329   283A      0.690496   284A      0.695354  
     285A      0.700516   286A      0.704707   287A      0.706135  
     288A      0.707301   289A      0.710200   290A      0.713777  
     291A      0.716721   292A      0.722149   293A      0.725132  
     294A      0.727575   295A      0.730433   296A      0.732719  
     297A      0.736823   298A      0.740718   299A      0.743200  
     300A      0.746188   301A      0.748789   302A      0.753498  
     303A      0.757893   304A      0.759249   305A      0.760737  
     306A      0.763234   307A      0.766589   308A      0.767913  
     309A      0.771521   310A      0.774644   311A      0.777618  
     312A      0.778460   313A      0.780194   314A      0.784647  
     315A      0.788035   316A      0.788988   317A      0.792880  
     318A      0.794673   319A      0.798963   320A      0.801786  
     321A      0.808133   322A      0.813993   323A      0.815342  
     324A      0.815702   325A      0.819508   326A      0.822490  
     327A      0.823998   328A      0.827886   329A      0.831295  
     330A      0.833262   331A      0.837268   332A      0.838553  
     333A      0.840844   334A      0.847340   335A      0.851495  
     336A      0.853267   337A      0.857005   338A      0.859860  
     339A      0.862934   340A      0.863890   341A      0.868325  
     342A      0.870834   343A      0.873350   344A      0.873854  
     345A      0.881349   346A      0.882269   347A      0.885767  
     348A      0.888677   349A      0.893126   350A      0.894124  
     351A      0.898116   352A      0.903275   353A      0.904993  
     354A      0.908092   355A      0.911971   356A      0.916206  
     357A      0.917747   358A      0.919696   359A      0.924695  
     360A      0.926478   361A      0.927863   362A      0.932601  
     363A      0.935456   364A      0.937484   365A      0.941452  
     366A      0.946032   367A      0.947143   368A      0.950261  
     369A      0.953419   370A      0.955986   371A      0.959514  
     372A      0.962527   373A      0.965224   374A      0.971508  
     375A      0.974358   376A      0.977904   377A      0.980920  
     378A      0.984430   379A      0.988444   380A      0.990324  
     381A      0.994147   382A      0.999316   383A      1.004110  
     384A      1.005706   385A      1.011347   386A      1.015164  
     387A      1.017323   388A      1.019631   389A      1.020992  
     390A      1.023494   391A      1.026378   392A      1.033152  
     393A      1.034635   394A      1.037699   395A      1.039709  
     396A      1.043661   397A      1.049635   398A      1.051918  
     399A      1.056283   400A      1.059034   401A      1.064946  
     402A      1.066773   403A      1.069796   404A      1.071861  
     405A      1.078237   406A      1.081794   407A      1.086297  
     408A      1.088578   409A      1.092407   410A      1.096386  
     411A      1.098962   412A      1.099727   413A      1.104006  
     414A      1.108953   415A      1.117526   416A      1.119107  
     417A      1.124522   418A      1.129197   419A      1.131025  
     420A      1.136115   421A      1.137125   422A      1.140816  
     423A      1.150370   424A      1.151540   425A      1.152901  
     426A      1.159894   427A      1.162475   428A      1.164853  
     429A      1.171727   430A      1.173241   431A      1.178857  
     432A      1.180019   433A      1.184279   434A      1.186473  
     435A      1.187975   436A      1.190812   437A      1.195561  
     438A      1.200029   439A      1.209385   440A      1.210312  
     441A      1.213827   442A      1.219885   443A      1.224724  
     444A      1.226997   445A      1.234708   446A      1.235921  
     447A      1.237629   448A      1.243517   449A      1.248119  
     450A      1.249847   451A      1.255513   452A      1.257455  
     453A      1.265460   454A      1.267963   455A      1.271597  
     456A      1.274942   457A      1.277956   458A      1.282299  
     459A      1.285506   460A      1.288551   461A      1.292128  
     462A      1.299339   463A      1.303383   464A      1.305644  
     465A      1.308575   466A      1.312902   467A      1.316342  
     468A      1.320398   469A      1.324361   470A      1.327539  
     471A      1.330174   472A      1.335914   473A      1.339655  
     474A      1.343766   475A      1.350630   476A      1.351437  
     477A      1.356260   478A      1.360093   479A      1.365934  
     480A      1.371780   481A      1.374016   482A      1.377493  
     483A      1.381669   484A      1.388780   485A      1.393732  
     486A      1.396303   487A      1.401137   488A      1.409571  
     489A      1.413287   490A      1.416612   491A      1.418832  
     492A      1.425940   493A      1.428839   494A      1.430735  
     495A      1.435006   496A      1.443610   497A      1.450032  
     498A      1.451952   499A      1.463811   500A      1.467332  
     501A      1.470724   502A      1.475004   503A      1.477271  
     504A      1.487203   505A      1.488937   506A      1.491692  
     507A      1.500289   508A      1.505086   509A      1.506961  
     510A      1.509512   511A      1.523650   512A      1.525426  
     513A      1.532369   514A      1.533941   515A      1.537656  
     516A      1.541858   517A      1.547458   518A      1.550943  
     519A      1.552384   520A      1.556494   521A      1.558156  
     522A      1.562638   523A      1.565441   524A      1.570625  
     525A      1.571745   526A      1.579329   527A      1.581742  
     528A      1.584786   529A      1.587775   530A      1.593184  
     531A      1.597015   532A      1.601292   533A      1.604979  
     534A      1.609134   535A      1.614135   536A      1.619898  
     537A      1.621560   538A      1.625340   539A      1.632128  
     540A      1.632808   541A      1.638629   542A      1.642007  
     543A      1.645400   544A      1.658635   545A      1.660979  
     546A      1.663664   547A      1.671779   548A      1.673027  
     549A      1.677275   550A      1.680780   551A      1.690174  
     552A      1.695545   553A      1.698093   554A      1.700044  
     555A      1.704899   556A      1.708267   557A      1.714930  
     558A      1.719136   559A      1.722989   560A      1.726034  
     561A      1.732883   562A      1.737052   563A      1.741871  
     564A      1.747866   565A      1.753536   566A      1.757354  
     567A      1.759299   568A      1.762906   569A      1.766321  
     570A      1.769782   571A      1.773348   572A      1.775122  
     573A      1.779453   574A      1.783109   575A      1.786022  
     576A      1.790581   577A      1.795781   578A      1.798250  
     579A      1.804926   580A      1.808470   581A      1.811477  
     582A      1.814600   583A      1.818556   584A      1.821558  
     585A      1.825649   586A      1.827280   587A      1.831864  
     588A      1.836556   589A      1.840510   590A      1.842747  
     591A      1.852796   592A      1.854284   593A      1.858188  
     594A      1.861222   595A      1.862711   596A      1.865079  
     597A      1.867493   598A      1.869171   599A      1.873775  
     600A      1.878567   601A      1.882874   602A      1.886877  
     603A      1.891041   604A      1.893490   605A      1.895574  
     606A      1.906562   607A      1.909412   608A      1.911573  
     609A      1.919799   610A      1.922164   611A      1.924013  
     612A      1.925555   613A      1.932392   614A      1.938585  
     615A      1.943705   616A      1.947236   617A      1.952491  
     618A      1.955110   619A      1.958015   620A      1.961809  
     621A      1.965736   622A      1.972935   623A      1.974534  
     624A      1.978741   625A      1.982622   626A      1.990072  
     627A      1.993400   628A      1.997342   629A      1.998637  
     630A      2.001841   631A      2.006279   632A      2.009114  
     633A      2.014445   634A      2.015734   635A      2.020668  
     636A      2.022477   637A      2.028149   638A      2.030389  
     639A      2.035182   640A      2.042133   641A      2.042537  
     642A      2.044891   643A      2.048735   644A      2.055847  
     645A      2.059863   646A      2.061220   647A      2.065855  
     648A      2.070558   649A      2.074102   650A      2.078177  
     651A      2.082215   652A      2.087992   653A      2.095954  
     654A      2.097939   655A      2.101832   656A      2.103214  
     657A      2.105955   658A      2.112646   659A      2.118620  
     660A      2.121773   661A      2.123143   662A      2.128484  
     663A      2.130490   664A      2.132594   665A      2.141336  
     666A      2.141753   667A      2.143960   668A      2.148614  
     669A      2.155177   670A      2.160175   671A      2.165298  
     672A      2.165976   673A      2.171807   674A      2.172491  
     675A      2.175356   676A      2.179776   677A      2.181232  
     678A      2.185803   679A      2.190114   680A      2.191471  
     681A      2.194428   682A      2.196865   683A      2.201987  
     684A      2.210390   685A      2.215800   686A      2.218216  
     687A      2.220388   688A      2.223827   689A      2.224511  
     690A      2.227739   691A      2.233059   692A      2.236612  
     693A      2.239818   694A      2.243905   695A      2.247090  
     696A      2.248939   697A      2.254963   698A      2.256485  
     699A      2.261363   700A      2.265095   701A      2.268508  
     702A      2.273955   703A      2.276085   704A      2.277117  
     705A      2.281248   706A      2.284808   707A      2.290170  
     708A      2.291909   709A      2.295583   710A      2.304732  
     711A      2.306977   712A      2.311222   713A      2.318924  
     714A      2.319801   715A      2.324174   716A      2.327400  
     717A      2.331902   718A      2.336117   719A      2.340615  
     720A      2.342053   721A      2.346638   722A      2.348121  
     723A      2.351771   724A      2.356732   725A      2.362127  
     726A      2.367800   727A      2.369642   728A      2.372106  
     729A      2.374377   730A      2.377634   731A      2.380712  
     732A      2.389828   733A      2.393620   734A      2.396839  
     735A      2.398706   736A      2.404556   737A      2.405565  
     738A      2.408612   739A      2.417831   740A      2.420175  
     741A      2.424730   742A      2.429612   743A      2.435572  
     744A      2.440258   745A      2.445670   746A      2.450959  
     747A      2.452398   748A      2.459706   749A      2.460175  
     750A      2.461858   751A      2.467228   752A      2.472170  
     753A      2.476166   754A      2.476464   755A      2.481944  
     756A      2.488058   757A      2.498282   758A      2.499305  
     759A      2.500955   760A      2.511425   761A      2.512182  
     762A      2.515382   763A      2.517757   764A      2.520673  
     765A      2.532247   766A      2.537491   767A      2.540558  
     768A      2.545033   769A      2.546058   770A      2.553859  
     771A      2.557186   772A      2.561096   773A      2.565057  
     774A      2.572607   775A      2.578760   776A      2.582993  
     777A      2.591268   778A      2.597566   779A      2.602342  
     780A      2.603919   781A      2.608579   782A      2.611623  
     783A      2.619726   784A      2.621045   785A      2.632167  
     786A      2.635226   787A      2.640115   788A      2.641495  
     789A      2.649618   790A      2.650639   791A      2.658553  
     792A      2.666544   793A      2.670586   794A      2.679289  
     795A      2.693080   796A      2.694361   797A      2.705117  
     798A      2.708976   799A      2.712185   800A      2.718737  
     801A      2.721964   802A      2.728117   803A      2.728655  
     804A      2.741351   805A      2.748925   806A      2.753345  
     807A      2.756466   808A      2.765667   809A      2.769968  
     810A      2.776016   811A      2.778614   812A      2.789128  
     813A      2.789289   814A      2.802411   815A      2.806640  
     816A      2.808852   817A      2.814891   818A      2.818876  
     819A      2.823401   820A      2.833087   821A      2.839874  
     822A      2.844024   823A      2.849913   824A      2.853619  
     825A      2.864713   826A      2.867447   827A      2.872813  
     828A      2.877517   829A      2.881026   830A      2.890406  
     831A      2.892809   832A      2.900747   833A      2.902336  
     834A      2.904383   835A      2.916346   836A      2.918756  
     837A      2.922592   838A      2.927212   839A      2.930866  
     840A      2.937882   841A      2.947762   842A      2.950059  
     843A      2.954969   844A      2.959831   845A      2.963787  
     846A      2.972798   847A      2.977104   848A      2.983716  
     849A      2.987780   850A      2.991231   851A      3.001870  
     852A      3.009417   853A      3.012400   854A      3.013552  
     855A      3.024017   856A      3.029298   857A      3.034456  
     858A      3.039640   859A      3.042905   860A      3.048822  
     861A      3.056327   862A      3.058377   863A      3.063528  
     864A      3.065229   865A      3.070583   866A      3.073744  
     867A      3.079151   868A      3.080971   869A      3.089467  
     870A      3.090125   871A      3.095593   872A      3.101052  
     873A      3.105196   874A      3.110198   875A      3.117356  
     876A      3.119195   877A      3.124379   878A      3.127948  
     879A      3.135549   880A      3.137608   881A      3.141415  
     882A      3.148907   883A      3.154114   884A      3.164837  
     885A      3.170946   886A      3.172951   887A      3.180337  
     888A      3.191658   889A      3.197354   890A      3.204924  
     891A      3.212667   892A      3.216329   893A      3.219279  
     894A      3.224274   895A      3.230204   896A      3.235136  
     897A      3.237101   898A      3.244871   899A      3.259339  
     900A      3.263068   901A      3.266357   902A      3.271178  
     903A      3.275523   904A      3.281793   905A      3.289536  
     906A      3.297950   907A      3.303120   908A      3.308594  
     909A      3.311855   910A      3.319162   911A      3.323746  
     912A      3.325892   913A      3.333944   914A      3.338210  
     915A      3.341074   916A      3.344556   917A      3.355944  
     918A      3.362608   919A      3.378762   920A      3.382637  
     921A      3.384203   922A      3.389161   923A      3.393153  
     924A      3.398181   925A      3.400117   926A      3.407305  
     927A      3.419426   928A      3.422085   929A      3.426632  
     930A      3.428310   931A      3.436287   932A      3.439527  
     933A      3.446994   934A      3.453484   935A      3.457140  
     936A      3.469427   937A      3.472690   938A      3.482963  
     939A      3.492659   940A      3.496027   941A      3.505296  
     942A      3.505609   943A      3.513725   944A      3.514325  
     945A      3.522900   946A      3.538337   947A      3.543372  
     948A      3.547266   949A      3.548229   950A      3.560741  
     951A      3.564052   952A      3.577277   953A      3.586391  
     954A      3.590730   955A      3.593107   956A      3.599012  
     957A      3.607084   958A      3.610578   959A      3.616946  
     960A      3.623159   961A      3.634407   962A      3.638728  
     963A      3.654877   964A      3.658653   965A      3.665344  
     966A      3.668760   967A      3.677367   968A      3.683987  
     969A      3.684935   970A      3.690824   971A      3.700091  
     972A      3.706080   973A      3.715247   974A      3.727091  
     975A      3.728986   976A      3.735424   977A      3.741550  
     978A      3.747603   979A      3.750775   980A      3.758532  
     981A      3.765062   982A      3.774435   983A      3.781773  
     984A      3.783798   985A      3.798429   986A      3.800128  
     987A      3.807752   988A      3.817042   989A      3.822725  
     990A      3.827776   991A      3.836129   992A      3.840808  
     993A      3.844266   994A      3.848309   995A      3.862603  
     996A      3.866684   997A      3.874057   998A      3.884285  
     999A      3.888718  1000A      3.900611  1001A      3.907149  
    1002A      3.916073  1003A      3.922355  1004A      3.928504  
    1005A      3.933580  1006A      3.939794  1007A      3.947634  
    1008A      3.953060  1009A      3.954478  1010A      3.958739  
    1011A      3.971293  1012A      3.974927  1013A      3.984548  
    1014A      3.992056  1015A      3.999578  1016A      4.001264  
    1017A      4.009168  1018A      4.012207  1019A      4.016557  
    1020A      4.029826  1021A      4.039137  1022A      4.045528  
    1023A      4.046080  1024A      4.053166  1025A      4.065270  
    1026A      4.067460  1027A      4.078299  1028A      4.080474  
    1029A      4.080602  1030A      4.092033  1031A      4.097064  
    1032A      4.106429  1033A      4.108261  1034A      4.112596  
    1035A      4.116927  1036A      4.118098  1037A      4.123941  
    1038A      4.134486  1039A      4.144704  1040A      4.145750  
    1041A      4.150433  1042A      4.160346  1043A      4.163289  
    1044A      4.171814  1045A      4.180266  1046A      4.191286  
    1047A      4.192143  1048A      4.197959  1049A      4.203808  
    1050A      4.209994  1051A      4.215465  1052A      4.219940  
    1053A      4.223445  1054A      4.228331  1055A      4.233122  
    1056A      4.244637  1057A      4.248450  1058A      4.253424  
    1059A      4.261217  1060A      4.266523  1061A      4.272182  
    1062A      4.289196  1063A      4.291652  1064A      4.296743  
    1065A      4.302883  1066A      4.305549  1067A      4.312754  
    1068A      4.320058  1069A      4.328478  1070A      4.332175  
    1071A      4.338840  1072A      4.344045  1073A      4.351367  
    1074A      4.353218  1075A      4.364917  1076A      4.368553  
    1077A      4.374446  1078A      4.382058  1079A      4.393179  
    1080A      4.402306  1081A      4.404145  1082A      4.409205  
    1083A      4.414447  1084A      4.422848  1085A      4.425167  
    1086A      4.426789  1087A      4.431545  1088A      4.439768  
    1089A      4.446307  1090A      4.452086  1091A      4.454341  
    1092A      4.455380  1093A      4.462648  1094A      4.469832  
    1095A      4.473668  1096A      4.478837  1097A      4.489940  
    1098A      4.498549  1099A      4.504891  1100A      4.506607  
    1101A      4.513555  1102A      4.519019  1103A      4.535376  
    1104A      4.541698  1105A      4.543367  1106A      4.547660  
    1107A      4.550393  1108A      4.558746  1109A      4.562140  
    1110A      4.565032  1111A      4.573607  1112A      4.576428  
    1113A      4.582192  1114A      4.589262  1115A      4.593383  
    1116A      4.599264  1117A      4.605394  1118A      4.607951  
    1119A      4.613064  1120A      4.617610  1121A      4.622873  
    1122A      4.627356  1123A      4.632180  1124A      4.638050  
    1125A      4.647155  1126A      4.653114  1127A      4.654385  
    1128A      4.662223  1129A      4.670571  1130A      4.677811  
    1131A      4.678526  1132A      4.685076  1133A      4.688753  
    1134A      4.695707  1135A      4.698278  1136A      4.701019  
    1137A      4.707446  1138A      4.709206  1139A      4.717816  
    1140A      4.724038  1141A      4.729275  1142A      4.735200  
    1143A      4.737512  1144A      4.746129  1145A      4.750469  
    1146A      4.757523  1147A      4.763306  1148A      4.765945  
    1149A      4.772321  1150A      4.785229  1151A      4.789866  
    1152A      4.793659  1153A      4.800520  1154A      4.804510  
    1155A      4.806044  1156A      4.817505  1157A      4.819792  
    1158A      4.835018  1159A      4.840297  1160A      4.850477  
    1161A      4.855110  1162A      4.856380  1163A      4.870692  
    1164A      4.872460  1165A      4.874604  1166A      4.878288  
    1167A      4.891014  1168A      4.894141  1169A      4.900215  
    1170A      4.918413  1171A      4.921653  1172A      4.932686  
    1173A      4.946923  1174A      4.951064  1175A      4.955646  
    1176A      4.961603  1177A      4.968886  1178A      4.973612  
    1179A      4.991386  1180A      4.997492  1181A      5.003776  
    1182A      5.012619  1183A      5.017528  1184A      5.022548  
    1185A      5.031885  1186A      5.041752  1187A      5.053248  
    1188A      5.060252  1189A      5.067437  1190A      5.074279  
    1191A      5.084813  1192A      5.086893  1193A      5.093983  
    1194A      5.099764  1195A      5.107541  1196A      5.116935  
    1197A      5.121746  1198A      5.128694  1199A      5.141070  
    1200A      5.145302  1201A      5.161519  1202A      5.168531  
    1203A      5.172217  1204A      5.188825  1205A      5.199466  
    1206A      5.202435  1207A      5.206425  1208A      5.215060  
    1209A      5.217736  1210A      5.239299  1211A      5.239889  
    1212A      5.243686  1213A      5.260234  1214A      5.268513  
    1215A      5.280701  1216A      5.282902  1217A      5.293109  
    1218A      5.298971  1219A      5.306093  1220A      5.314473  
    1221A      5.325679  1222A      5.331330  1223A      5.343606  
    1224A      5.360535  1225A      5.370854  1226A      5.380622  
    1227A      5.390729  1228A      5.401606  1229A      5.421672  
    1230A      5.427659  1231A      5.446446  1232A      5.465549  
    1233A      5.477909  1234A      5.488040  1235A      5.490911  
    1236A      5.506806  1237A      5.527834  1238A      5.533325  
    1239A      5.555076  1240A      5.558375  1241A      5.571889  
    1242A      5.576479  1243A      5.582402  1244A      5.597277  
    1245A      5.602405  1246A      5.616445  1247A      5.617749  
    1248A      5.629165  1249A      5.641518  1250A      5.662235  
    1251A      5.666643  1252A      5.676490  1253A      5.698018  
    1254A      5.702771  1255A      5.714863  1256A      5.724768  
    1257A      5.736375  1258A      5.742858  1259A      5.754431  
    1260A      5.770234  1261A      5.784485  1262A      5.803697  
    1263A      5.809278  1264A      5.832989  1265A      5.834837  
    1266A      5.838124  1267A      5.857698  1268A      5.863124  
    1269A      5.889871  1270A      5.894822  1271A      5.928385  
    1272A      5.943761  1273A      5.945627  1274A      5.952486  
    1275A      5.954285  1276A      5.987008  1277A      5.988130  
    1278A      6.001990  1279A      6.007848  1280A      6.026115  
    1281A      6.037264  1282A      6.059293  1283A      6.066226  
    1284A      6.085797  1285A      6.094646  1286A      6.110408  
    1287A      6.158075  1288A      6.184418  1289A      6.216518  
    1290A      6.233431  1291A      6.281902  1292A      6.292098  
    1293A      6.305589  1294A      6.306877  1295A      6.320509  
    1296A      6.322009  1297A      6.332491  1298A      6.345275  
    1299A      6.350685  1300A      6.356336  1301A      6.374694  
    1302A      6.397518  1303A      6.400538  1304A      6.415598  
    1305A      6.446171  1306A      6.453413  1307A      6.459187  
    1308A      6.488084  1309A      6.499502  1310A      6.519749  
    1311A      6.531600  1312A      6.542174  1313A      6.552625  
    1314A      6.560285  1315A      6.586848  1316A      6.594661  
    1317A      6.604678  1318A      6.607608  1319A      6.621285  
    1320A      6.632227  1321A      6.640489  1322A      6.645544  
    1323A      6.656738  1324A      6.661283  1325A      6.668454  
    1326A      6.680158  1327A      6.684826  1328A      6.703993  
    1329A      6.713404  1330A      6.746561  1331A      6.758515  
    1332A      6.761626  1333A      6.771238  1334A      6.778811  
    1335A      6.797820  1336A      6.802454  1337A      6.815802  
    1338A      6.825464  1339A      6.832500  1340A      6.846095  
    1341A      6.850115  1342A      6.858341  1343A      6.861974  
    1344A      6.875416  1345A      6.890017  1346A      6.900677  
    1347A      6.908779  1348A      6.916284  1349A      6.922142  
    1350A      6.931903  1351A      6.937793  1352A      6.949516  
    1353A      6.956148  1354A      6.962304  1355A      6.970759  
    1356A      6.973787  1357A      6.985144  1358A      6.988509  
    1359A      7.002618  1360A      7.007041  1361A      7.014691  
    1362A      7.024390  1363A      7.025995  1364A      7.038143  
    1365A      7.044159  1366A      7.051426  1367A      7.053349  
    1368A      7.060106  1369A      7.068990  1370A      7.089711  
    1371A      7.092174  1372A      7.100112  1373A      7.102968  
    1374A      7.112432  1375A      7.115125  1376A      7.131555  
    1377A      7.135382  1378A      7.145798  1379A      7.150440  
    1380A      7.153388  1381A      7.158019  1382A      7.163567  
    1383A      7.180088  1384A      7.183836  1385A      7.186390  
    1386A      7.198121  1387A      7.216127  1388A      7.220924  
    1389A      7.224370  1390A      7.235265  1391A      7.240757  
    1392A      7.258789  1393A      7.267066  1394A      7.268690  
    1395A      7.286927  1396A      7.288584  1397A      7.293997  
    1398A      7.302447  1399A      7.310462  1400A      7.320254  
    1401A      7.323535  1402A      7.325760  1403A      7.328776  
    1404A      7.343642  1405A      7.345022  1406A      7.352162  
    1407A      7.367430  1408A      7.369142  1409A      7.374789  
    1410A      7.384755  1411A      7.410993  1412A      7.420107  
    1413A      7.428907  1414A      7.434271  1415A      7.445710  
    1416A      7.468042  1417A      7.482475  1418A      7.493937  
    1419A      7.506943  1420A      7.512823  1421A      7.518981  
    1422A      7.534787  1423A      7.556850  1424A      7.561180  
    1425A      7.567599  1426A      7.572210  1427A      7.583689  
    1428A      7.600669  1429A      7.607048  1430A      7.613587  
    1431A      7.618108  1432A      7.627618  1433A      7.640718  
    1434A      7.654309  1435A      7.666678  1436A      7.678485  
    1437A      7.681311  1438A      7.695491  1439A      7.715307  
    1440A      7.725075  1441A      7.731349  1442A      7.742099  
    1443A      7.751481  1444A      7.761675  1445A      7.775498  
    1446A      7.777152  1447A      7.782908  1448A      7.789047  
    1449A      7.795403  1450A      7.802434  1451A      7.808112  
    1452A      7.822365  1453A      7.830362  1454A      7.842944  
    1455A      7.846427  1456A      7.858780  1457A      7.862879  
    1458A      7.884346  1459A      7.889371  1460A      7.899854  
    1461A      7.900928  1462A      7.919908  1463A      7.924058  
    1464A      7.937958  1465A      7.955621  1466A      7.969995  
    1467A      7.975992  1468A      7.978985  1469A      8.002774  
    1470A      8.008016  1471A      8.017809  1472A      8.020008  
    1473A      8.030895  1474A      8.045632  1475A      8.047368  
    1476A      8.052427  1477A      8.077979  1478A      8.100565  
    1479A      8.117556  1480A      8.127635  1481A      8.134426  
    1482A      8.141643  1483A      8.145023  1484A      8.148555  
    1485A      8.173501  1486A      8.184282  1487A      8.193546  
    1488A      8.194403  1489A      8.212272  1490A      8.216915  
    1491A      8.228290  1492A      8.231419  1493A      8.233697  
    1494A      8.241495  1495A      8.252656  1496A      8.259197  
    1497A      8.275225  1498A      8.283618  1499A      8.293113  
    1500A      8.299423  1501A      8.309432  1502A      8.311167  
    1503A      8.323001  1504A      8.334062  1505A      8.346438  
    1506A      8.354724  1507A      8.364845  1508A      8.377466  
    1509A      8.408211  1510A      8.424165  1511A      8.427832  
    1512A      8.451419  1513A      8.461562  1514A      8.466293  
    1515A      8.468859  1516A      8.475818  1517A      8.496150  
    1518A      8.506464  1519A      8.533041  1520A      8.544379  
    1521A      8.548307  1522A      8.554322  1523A      8.566202  
    1524A      8.580536  1525A      8.581556  1526A      8.593215  
    1527A      8.601921  1528A      8.617555  1529A      8.634192  
    1530A      8.637489  1531A      8.647449  1532A      8.654954  
    1533A      8.660750  1534A      8.677004  1535A      8.685932  
    1536A      8.691419  1537A      8.696704  1538A      8.705142  
    1539A      8.707841  1540A      8.722805  1541A      8.727363  
    1542A      8.737552  1543A      8.748350  1544A      8.754950  
    1545A      8.769525  1546A      8.783146  1547A      8.788337  
    1548A      8.804370  1549A      8.809534  1550A      8.813315  
    1551A      8.818556  1552A      8.827521  1553A      8.833365  
    1554A      8.842390  1555A      8.855870  1556A      8.871465  
    1557A      8.877396  1558A      8.891075  1559A      8.895068  
    1560A      8.902345  1561A      8.907511  1562A      8.928015  
    1563A      8.934202  1564A      8.940394  1565A      8.945347  
    1566A      8.956820  1567A      8.971088  1568A      8.976090  
    1569A      8.977397  1570A      8.996625  1571A      9.002652  
    1572A      9.006497  1573A      9.035573  1574A      9.037722  
    1575A      9.057894  1576A      9.066323  1577A      9.069396  
    1578A      9.079363  1579A      9.085109  1580A      9.110686  
    1581A      9.138016  1582A      9.161483  1583A      9.169510  
    1584A      9.183415  1585A      9.190548  1586A      9.198411  
    1587A      9.202417  1588A      9.224211  1589A      9.231815  
    1590A      9.259489  1591A      9.265012  1592A      9.268324  
    1593A      9.285376  1594A      9.287219  1595A      9.305381  
    1596A      9.330065  1597A      9.343137  1598A      9.356188  
    1599A      9.357065  1600A      9.370719  1601A      9.392673  
    1602A      9.395776  1603A      9.408408  1604A      9.415504  
    1605A      9.422402  1606A      9.428653  1607A      9.438783  
    1608A      9.451632  1609A      9.463273  1610A      9.477608  
    1611A      9.504352  1612A      9.510785  1613A      9.518327  
    1614A      9.529203  1615A      9.548718  1616A      9.549751  
    1617A      9.558801  1618A      9.572423  1619A      9.593485  
    1620A      9.609688  1621A      9.626777  1622A      9.634690  
    1623A      9.654226  1624A      9.664816  1625A      9.684457  
    1626A      9.698176  1627A      9.699715  1628A      9.710550  
    1629A      9.728801  1630A      9.733336  1631A      9.739884  
    1632A      9.756074  1633A      9.766458  1634A      9.770592  
    1635A      9.776984  1636A      9.791361  1637A      9.806829  
    1638A      9.809550  1639A      9.810507  1640A      9.827337  
    1641A      9.831549  1642A      9.841526  1643A      9.852798  
    1644A      9.857807  1645A      9.865369  1646A      9.874222  
    1647A      9.885314  1648A      9.899945  1649A      9.912218  
    1650A      9.918165  1651A      9.924206  1652A      9.936106  
    1653A      9.942434  1654A      9.962142  1655A      9.971952  
    1656A     10.011261  1657A     10.019338  1658A     10.025082  
    1659A     10.030967  1660A     10.089004  1661A     10.114117  
    1662A     10.117417  1663A     10.120867  1664A     10.129580  
    1665A     10.152420  1666A     10.153518  1667A     10.164995  
    1668A     10.166427  1669A     10.169004  1670A     10.185069  
    1671A     10.210182  1672A     10.229955  1673A     10.235119  
    1674A     10.244722  1675A     10.247551  1676A     10.256787  
    1677A     10.265887  1678A     10.269723  1679A     10.275708  
    1680A     10.277674  1681A     10.285692  1682A     10.295164  
    1683A     10.312900  1684A     10.316242  1685A     10.320350  
    1686A     10.342870  1687A     10.357663  1688A     10.360887  
    1689A     10.383408  1690A     10.388849  1691A     10.393378  
    1692A     10.421721  1693A     10.427690  1694A     10.450838  
    1695A     10.457691  1696A     10.478807  1697A     10.525177  
    1698A     10.544989  1699A     10.589194  1700A     10.596110  
    1701A     10.639710  1702A     10.651225  1703A     10.653315  
    1704A     10.714937  1705A     10.722450  1706A     10.731527  
    1707A     10.748129  1708A     10.754235  1709A     10.768639  
    1710A     10.797546  1711A     10.848959  1712A     10.861632  
    1713A     10.862754  1714A     10.880011  1715A     10.887355  
    1716A     10.889981  1717A     10.898315  1718A     10.924962  
    1719A     10.934531  1720A     10.947186  1721A     10.956239  
    1722A     10.967258  1723A     10.982794  1724A     11.004310  
    1725A     11.011878  1726A     11.021885  1727A     11.033531  
    1728A     11.051508  1729A     11.069853  1730A     11.080166  
    1731A     11.092843  1732A     11.101290  1733A     11.114106  
    1734A     11.122462  1735A     11.128064  1736A     11.159047  
    1737A     11.169161  1738A     11.182817  1739A     11.185836  
    1740A     11.197995  1741A     11.206620  1742A     11.218550  
    1743A     11.237680  1744A     11.241016  1745A     11.247068  
    1746A     11.252865  1747A     11.265940  1748A     11.281974  
    1749A     11.292130  1750A     11.294773  1751A     11.336292  
    1752A     11.359215  1753A     11.362678  1754A     11.381701  
    1755A     11.419110  1756A     11.423707  1757A     11.431174  
    1758A     11.436313  1759A     11.450465  1760A     11.469527  
    1761A     11.509093  1762A     11.531165  1763A     11.536776  
    1764A     11.543636  1765A     11.551983  1766A     11.562839  
    1767A     11.600491  1768A     11.611774  1769A     11.623803  
    1770A     11.633154  1771A     11.639206  1772A     11.647647  
    1773A     11.655951  1774A     11.663077  1775A     11.666416  
    1776A     11.684086  1777A     11.717225  1778A     11.738006  
    1779A     11.757362  1780A     11.763113  1781A     11.776006  
    1782A     11.804284  1783A     11.881423  1784A     11.886074  
    1785A     11.911672  1786A     11.915762  1787A     11.924007  
    1788A     11.948077  1789A     11.962931  1790A     11.974894  
    1791A     11.980886  1792A     11.985122  1793A     11.995478  
    1794A     12.013890  1795A     12.038328  1796A     12.074231  
    1797A     12.099640  1798A     12.130508  1799A     12.161260  
    1800A     12.189332  1801A     12.212036  1802A     12.224761  
    1803A     12.230216  1804A     12.234243  1805A     12.248105  
    1806A     12.258861  1807A     12.284571  1808A     12.295595  
    1809A     12.302604  1810A     12.327003  1811A     12.333398  
    1812A     12.340502  1813A     12.346990  1814A     12.367667  
    1815A     12.376698  1816A     12.415404  1817A     12.452572  
    1818A     12.475752  1819A     12.482062  1820A     12.589176  
    1821A     12.595072  1822A     12.597193  1823A     12.597873  
    1824A     12.606587  1825A     12.675577  1826A     12.699528  
    1827A     12.761801  1828A     12.762797  1829A     12.772584  
    1830A     12.813803  1831A     12.828663  1832A     12.854562  
    1833A     12.867453  1834A     12.920636  1835A     12.946091  
    1836A     12.958157  1837A     12.978920  1838A     12.983950  
    1839A     12.992985  1840A     13.015651  1841A     13.037947  
    1842A     13.063566  1843A     13.073145  1844A     13.093154  
    1845A     13.094510  1846A     13.099213  1847A     13.107144  
    1848A     13.124717  1849A     13.133048  1850A     13.158896  
    1851A     13.242818  1852A     13.258603  1853A     13.299968  
    1854A     13.354893  1855A     13.359149  1856A     13.365247  
    1857A     13.390918  1858A     13.405356  1859A     13.410177  
    1860A     13.418132  1861A     13.441196  1862A     13.450125  
    1863A     13.461917  1864A     13.469601  1865A     13.494695  
    1866A     13.509234  1867A     13.519731  1868A     13.528583  
    1869A     13.597500  1870A     13.606955  1871A     13.665038  
    1872A     13.677988  1873A     13.715693  1874A     13.751771  
    1875A     13.811894  1876A     13.828151  1877A     13.877606  
    1878A     14.044401  1879A     14.047422  1880A     14.068039  
    1881A     14.118500  1882A     14.134713  1883A     14.148198  
    1884A     14.224414  1885A     14.339716  1886A     14.376181  
    1887A     14.557549  1888A     14.582701  1889A     14.628801  
    1890A     14.634439  1891A     14.647164  1892A     14.684507  
    1893A     14.756528  1894A     14.884304  1895A     15.051321  
    1896A     15.057775  1897A     15.116739  1898A     15.129261  
    1899A     15.144598  1900A     15.159587  1901A     15.262001  
    1902A     15.330571  1903A     15.458030  1904A     15.511448  
    1905A     15.530682  1906A     15.550563  1907A     17.482525  
    1908A     17.554418  1909A     26.960801  1910A     26.991839  
    1911A     27.142460  1912A     27.268248  1913A     28.032449  
    1914A     28.061043  1915A     28.386210  1916A     28.389028  
    1917A     36.301723  1918A     36.328029  1919A     44.463388  
    1920A     44.566350  1921A     44.606415  1922A     44.664624  
    1923A     46.092920  1924A     46.385559  

    Final Occupation by Irrep:
              A 
    DOCC [    62 ]

  Energy converged.

  @DF-RHF Final Energy:  -869.49510222290280

   => Energetics <=

    Nuclear Repulsion Energy =           1089.6016289307808620
    One-Electron Energy =               -3357.5207643751291471
    Two-Electron Energy =                1398.4240332214455975
    Total Energy =                       -869.4951022229026876



Properties will be evaluated at   0.000000,   0.000000,   0.000000 Bohr

Properties computed using the SCF density matrix

  Nuclear Dipole Moment: (a.u.)
     X:     6.4283      Y:     6.0223      Z:    -0.7176

  Electronic Dipole Moment: (a.u.)
     X:    -4.3616      Y:    -4.8260      Z:     2.5041

  Dipole Moment: (a.u.)
     X:     2.0667      Y:     1.1963      Z:     1.7866     Total:     2.9823

  Dipole Moment: (Debye)
     X:     5.2530      Y:     3.0407      Z:     4.5410     Total:     7.5803


*** tstop() called on hex15 at Wed Mar  7 06:14:29 2018
Module time:
	user time   =    2759.55 seconds =      45.99 minutes
	system time =     735.05 seconds =      12.25 minutes
	total time  =       3046 seconds =      50.77 minutes
Total time:
	user time   =    2759.55 seconds =      45.99 minutes
	system time =     735.05 seconds =      12.25 minutes
	total time  =       3046 seconds =      50.77 minutes

*** Psi4 exiting successfully. Buy a developer a beer!
