
    -----------------------------------------------------------------------
          Psi4: An Open-Source Ab Initio Electronic Structure Package
                               Psi4 1.2a1.dev875 

                         Git: Rev {symm_JK} 0ea9481 dirty


    R. M. Parrish, L. A. Burns, D. G. A. Smith, A. C. Simmonett,
    A. E. DePrince III, E. G. Hohenstein, U. Bozkaya, A. Yu. Sokolov,
    R. Di Remigio, R. M. Richard, J. F. Gonthier, A. M. James,
    H. R. McAlexander, A. Kumar, M. Saitow, X. Wang, B. P. Pritchard,
    P. Verma, H. F. Schaefer III, K. Patkowski, R. A. King, E. F. Valeev,
    F. A. Evangelista, J. M. Turney, T. D. Crawford, and C. D. Sherrill,
    J. Chem. Theory Comput. 13(7) pp 3185--3197 (2017).
    (doi: 10.1021/acs.jctc.7b00174)

    -----------------------------------------------------------------------


    Psi4 started on: Thursday, 08 March 2018 02:16AM

    Process ID:   7596
    PSIDATADIR: /theoryfs2/ds/schieber/Gits/mspsi4/objdir3/stage/usr/local/psi4/share/psi4
    Memory:     500.0 MiB
    Threads:    6
    
  ==> Input File <==

--------------------------------------------------------------------------
memory 60 Gb

molecule protein_63 {
0 1
 N   18.626  30.444   6.627
 C   17.853  29.516   5.837
 C   16.945  30.292   4.886
 O   15.843  30.678   5.237
 C   17.047  28.642   6.811
 C   16.316  27.513   6.146
 O   16.236  27.458   4.905
 O   15.762  26.696   6.882
 N    4.567  24.042   8.795
 C    4.886  22.777   8.145
 C    6.265  22.720   7.521
 O    6.723  23.689   6.900
 N   17.407  27.054  -1.437
 C   17.227  26.751  -0.026
 C   18.555  26.446   0.653
 O   19.003  25.309   0.692
 C   16.258  25.572   0.084
 C   15.759  25.336   1.493
 O   16.399  25.780   2.453
 O   14.731  24.675   1.645
 N   19.106  26.199   3.688
 C   18.957  25.372   4.876
 C   18.845  23.903   4.520
 O   18.660  23.054   5.417
 N   20.536  20.559   2.918
 C   21.779  19.912   2.496
 C   21.693  19.374   1.107
 O   22.642  19.502   0.361
 C   22.169  18.827   3.447
 C   22.272  19.337   4.844
 O   22.714  20.482   5.029
 O   21.836  18.647   5.778
 H   18.180  30.990   7.295
 H   18.510  28.835   5.249
 H   16.336  29.276   7.377
 H   17.778  28.186   7.516
 H   15.845  26.702   7.843
 H    4.436  24.871   8.195
 H    4.744  21.930   8.802
 H    4.143  22.632   7.335
 H   17.860  26.421  -2.023
 H   16.724  27.595   0.500
 H   16.724  24.663  -0.337
 H   15.363  25.845  -0.519
 H   16.737  25.171   3.109
 H   18.314  26.771   3.377
 H   18.015  25.631   5.391
 H   19.792  25.567   5.577
 H   19.976  20.073   3.597
 H   22.602  20.664   2.537
 H   23.175  18.459   3.144
 H   21.465  17.966   3.392
 H   21.492  17.752   5.634
 H   19.646  30.419   6.619
 H   17.295  30.415   3.850
 H    4.454  24.117   9.806
 H    6.887  21.864   7.822
 H   16.947  27.858  -1.864
 H   19.060  27.284   1.155
 H   20.034  26.347   3.290
 H   18.824  23.654   3.449
 H   20.197  21.395   2.443
 H   20.727  18.956   0.786
}

set {
basis aug-cc-pvqz
scf_type df
guess sad
DF_SCF_TYPE SYMM_JK
}

energy('HF')
--------------------------------------------------------------------------

  Memory set to  55.879 GiB by Python driver.

*** tstart() called on hex15
*** at Thu Mar  8 02:16:35 2018

   => Loading Basis Set <=

    Name: AUG-CC-PVQZ
    Role: ORBITAL
    Keyword: BASIS
    atoms 1, 9, 13, 21, 25                                   entry N          line   359 file /theoryfs2/ds/schieber/Gits/mspsi4/objdir3/stage/usr/local/psi4/share/psi4/basis/aug-cc-pvqz.gbs 
    atoms 2-3, 5-6, 10-11, 14-15, 17-18, 22-23, 26-27, 29-30 entry C          line   299 file /theoryfs2/ds/schieber/Gits/mspsi4/objdir3/stage/usr/local/psi4/share/psi4/basis/aug-cc-pvqz.gbs 
    atoms 4, 7-8, 12, 16, 19-20, 24, 28, 31-32               entry O          line   419 file /theoryfs2/ds/schieber/Gits/mspsi4/objdir3/stage/usr/local/psi4/share/psi4/basis/aug-cc-pvqz.gbs 
    atoms 33-63                                              entry H          line    36 file /theoryfs2/ds/schieber/Gits/mspsi4/objdir3/stage/usr/local/psi4/share/psi4/basis/aug-cc-pvqz.gbs 


         ---------------------------------------------------------
                                   SCF
            by Justin Turney, Rob Parrish, Andy Simmonett
                             and Daniel Smith
                              RHF Reference
                        6 Threads,  57220 MiB Core
         ---------------------------------------------------------

  ==> Geometry <==

    Molecular point group: c1
    Full point group: C1

    Geometry (in Angstrom), charge = 0, multiplicity = 1:

       Center              X                  Y                   Z               Mass       
    ------------   -----------------  -----------------  -----------------  -----------------
           N          1.657504219370     5.864960045694     2.581113844373    14.003074004780
           C          0.884504219370     4.936960045694     1.791113844373    12.000000000000
           C         -0.023495780630     5.712960045694     0.840113844373    12.000000000000
           O         -1.125495780630     6.098960045694     1.191113844373    15.994914619560
           C          0.078504219370     4.062960045694     2.765113844373    12.000000000000
           C         -0.652495780630     2.933960045694     2.100113844373    12.000000000000
           O         -0.732495780630     2.878960045694     0.859113844373    15.994914619560
           O         -1.206495780630     2.116960045694     2.836113844373    15.994914619560
           N        -12.401495780630    -0.537039954306     4.749113844373    14.003074004780
           C        -12.082495780630    -1.802039954306     4.099113844373    12.000000000000
           C        -10.703495780630    -1.859039954306     3.475113844373    12.000000000000
           O        -10.245495780630    -0.890039954306     2.854113844373    15.994914619560
           N          0.438504219370     2.474960045694    -5.482886155627    14.003074004780
           C          0.258504219370     2.171960045694    -4.071886155627    12.000000000000
           C          1.586504219370     1.866960045694    -3.392886155627    12.000000000000
           O          2.034504219370     0.729960045694    -3.353886155627    15.994914619560
           C         -0.710495780630     0.992960045694    -3.961886155627    12.000000000000
           C         -1.209495780630     0.756960045694    -2.552886155627    12.000000000000
           O         -0.569495780630     1.200960045694    -1.592886155627    15.994914619560
           O         -2.237495780630     0.095960045694    -2.400886155627    15.994914619560
           N          2.137504219370     1.619960045694    -0.357886155627    14.003074004780
           C          1.988504219370     0.792960045694     0.830113844373    12.000000000000
           C          1.876504219370    -0.676039954306     0.474113844373    12.000000000000
           O          1.691504219370    -1.525039954306     1.371113844373    15.994914619560
           N          3.567504219370    -4.020039954306    -1.127886155627    14.003074004780
           C          4.810504219370    -4.667039954306    -1.549886155627    12.000000000000
           C          4.724504219370    -5.205039954306    -2.938886155627    12.000000000000
           O          5.673504219370    -5.077039954306    -3.684886155627    15.994914619560
           C          5.200504219370    -5.752039954306    -0.598886155627    12.000000000000
           C          5.303504219370    -5.242039954306     0.798113844373    12.000000000000
           O          5.745504219370    -4.097039954306     0.983113844373    15.994914619560
           O          4.867504219370    -5.932039954306     1.732113844373    15.994914619560
           H          1.211504219370     6.410960045694     3.249113844373     1.007825032070
           H          1.541504219370     4.255960045694     1.203113844373     1.007825032070
           H         -0.632495780630     4.696960045694     3.331113844373     1.007825032070
           H          0.809504219370     3.606960045694     3.470113844373     1.007825032070
           H         -1.123495780630     2.122960045694     3.797113844373     1.007825032070
           H        -12.532495780630     0.291960045694     4.149113844373     1.007825032070
           H        -12.224495780630    -2.649039954306     4.756113844373     1.007825032070
           H        -12.825495780630    -1.947039954306     3.289113844373     1.007825032070
           H          0.891504219370     1.841960045694    -6.068886155627     1.007825032070
           H         -0.244495780630     3.015960045694    -3.545886155627     1.007825032070
           H         -0.244495780630     0.083960045694    -4.382886155627     1.007825032070
           H         -1.605495780630     1.265960045694    -4.564886155627     1.007825032070
           H         -0.231495780630     0.591960045694    -0.936886155627     1.007825032070
           H          1.345504219370     2.191960045694    -0.668886155627     1.007825032070
           H          1.046504219370     1.051960045694     1.345113844373     1.007825032070
           H          2.823504219370     0.987960045694     1.531113844373     1.007825032070
           H          3.007504219370    -4.506039954306    -0.448886155627     1.007825032070
           H          5.633504219370    -3.915039954306    -1.508886155627     1.007825032070
           H          6.206504219370    -6.120039954306    -0.901886155627     1.007825032070
           H          4.496504219370    -6.613039954306    -0.653886155627     1.007825032070
           H          4.523504219370    -6.827039954306     1.588113844373     1.007825032070
           H          2.677504219370     5.839960045694     2.573113844373     1.007825032070
           H          0.326504219370     5.835960045694    -0.195886155627     1.007825032070
           H        -12.514495780630    -0.462039954306     5.760113844373     1.007825032070
           H        -10.081495780630    -2.715039954306     3.776113844373     1.007825032070
           H         -0.021495780630     3.278960045694    -5.909886155627     1.007825032070
           H          2.091504219370     2.704960045694    -2.890886155627     1.007825032070
           H          3.065504219370     1.767960045694    -0.755886155627     1.007825032070
           H          1.855504219370    -0.925039954306    -0.596886155627     1.007825032070
           H          3.228504219370    -3.184039954306    -1.602886155627     1.007825032070
           H          3.758504219370    -5.623039954306    -3.259886155627     1.007825032070

  Running in c1 symmetry.

  Rotational constants: A =      0.00221  B =      0.00111  C =      0.00093 [cm^-1]
  Rotational constants: A =     66.16714  B =     33.30218  C =     27.81539 [MHz]
  Nuclear repulsion = 2982.748493552713626

  Charge       = 0
  Multiplicity = 1
  Electrons    = 250
  Nalpha       = 125
  Nbeta        = 125

  ==> Algorithm <==

  SCF Algorithm Type is DF.
  DIIS enabled.
  MOM disabled.
  Fractional occupation disabled.
  Guess Type is SAD.
  Energy threshold   = 1.00e-06
  Density threshold  = 1.00e-06
  Integral threshold = 0.00e+00

  ==> Primary Basis <==

  Basis Set: AUG-CC-PVQZ
    Blend: AUG-CC-PVQZ
    Number of shells: 1074
    Number of basis function: 3986
    Number of Cartesian functions: 5065
    Spherical Harmonics?: true
    Max angular momentum: 4

   => Loading Basis Set <=

    Name: (AUG-CC-PVQZ AUX)
    Role: JKFIT
    Keyword: DF_BASIS_SCF
    atoms 1, 9, 13, 21, 25                                   entry N          line   248 file /theoryfs2/ds/schieber/Gits/mspsi4/objdir3/stage/usr/local/psi4/share/psi4/basis/aug-cc-pvqz-jkfit.gbs 
    atoms 2-3, 5-6, 10-11, 14-15, 17-18, 22-23, 26-27, 29-30 entry C          line   178 file /theoryfs2/ds/schieber/Gits/mspsi4/objdir3/stage/usr/local/psi4/share/psi4/basis/aug-cc-pvqz-jkfit.gbs 
    atoms 4, 7-8, 12, 16, 19-20, 24, 28, 31-32               entry O          line   318 file /theoryfs2/ds/schieber/Gits/mspsi4/objdir3/stage/usr/local/psi4/share/psi4/basis/aug-cc-pvqz-jkfit.gbs 
    atoms 33-63                                              entry H          line    70 file /theoryfs2/ds/schieber/Gits/mspsi4/objdir3/stage/usr/local/psi4/share/psi4/basis/aug-cc-pvqz-jkfit.gbs 

  ==> Pre-Iterations <==

   -------------------------------------------------------
    Irrep   Nso     Nmo     Nalpha   Nbeta   Ndocc  Nsocc
   -------------------------------------------------------
     A       3986    3986       0       0       0       0
   -------------------------------------------------------
    Total    3986    3986     125     125     125       0
   -------------------------------------------------------

  ==> Integral Setup <==


    ==> DF_Helper memory announcement <==
        Turning off in-core AOs.  DF_Helper needs at least (478.983GB), but it only got (45GB)

    ==> DF_Helper <==
      nao           = 3986
      naux          = 6900
      Scwarz cutoff = 1.000000E-12
      mem (doubles) = 5625000000
      nthreads      = 6
      Algorithm     = STORE
      AO_core?      = 0
      MO_core?      = 0
      hold metric   = 0
      metric power  = -5.000000E-01
  Fitting condition = 1.000000E-12
  Mask sparsity (%) = (56.873732)


  Minimum eigenvalue in the overlap matrix is 3.7299527120E-07.
  Using Symmetric Orthogonalization.

  SCF Guess: Superposition of Atomic Densities via on-the-fly atomic UHF.

  ==> Iterations <==

                           Total Energy        Delta E     RMS |[F,P]|

   @DF-RHF iter   0: -1730.44866505752907   -1.73045e+03   6.50481e-03 
   @DF-RHF iter   1: -1719.01386856895965    1.14348e+01   9.16235e-04 
   @DF-RHF iter   2: -1719.76701195860392   -7.53143e-01   6.83049e-04 DIIS
   @DF-RHF iter   3: -1720.21130713698335   -4.44295e-01   1.33236e-04 DIIS
   @DF-RHF iter   4: -1720.25160869814363   -4.03016e-02   5.00441e-05 DIIS
   @DF-RHF iter   5: -1720.25888549058141   -7.27679e-03   2.17065e-05 DIIS
   @DF-RHF iter   6: -1720.26094426700979   -2.05878e-03   1.03904e-05 DIIS
   @DF-RHF iter   7: -1720.26151056559411   -5.66299e-04   4.83988e-06 DIIS
   @DF-RHF iter   8: -1720.26163222178843   -1.21656e-04   2.20828e-06 DIIS
   @DF-RHF iter   9: -1720.26166292241669   -3.07006e-05   1.07893e-06 DIIS
   @DF-RHF iter  10: -1720.26167140295115   -8.48053e-06   5.07591e-07 DIIS
   @DF-RHF iter  11: -1720.26167343644693   -2.03350e-06   1.92371e-07 DIIS
   @DF-RHF iter  12: -1720.26167367838480   -2.41938e-07   8.21303e-08 DIIS

  ==> Post-Iterations <==

    Orbital Energies (a.u.)
    -----------------------

    Doubly Occupied:                                                      

       1A    -20.643074     2A    -20.635411     3A    -20.601659  
       4A    -20.567332     5A    -20.559330     6A    -20.557441  
       7A    -20.557296     8A    -20.554690     9A    -20.538060  
      10A    -20.519380    11A    -20.514669    12A    -15.558349  
      13A    -15.552364    14A    -15.547772    15A    -15.543890  
      16A    -15.543155    17A    -11.395622    18A    -11.382505  
      19A    -11.365775    20A    -11.344569    21A    -11.337188  
      22A    -11.335655    23A    -11.331304    24A    -11.326473  
      25A    -11.295990    26A    -11.290296    27A    -11.280732  
      28A    -11.275844    29A    -11.273632    30A    -11.265229  
      31A    -11.263811    32A    -11.238286    33A     -1.527297  
      34A     -1.512952    35A     -1.499150    36A     -1.397570  
      37A     -1.392349    38A     -1.391563    39A     -1.370264  
      40A     -1.367654    41A     -1.356935    42A     -1.340135  
      43A     -1.332743    44A     -1.214243    45A     -1.203048  
      46A     -1.193897    47A     -1.185128    48A     -1.169440  
      49A     -1.055972    50A     -1.055592    51A     -1.044004  
      52A     -0.967460    53A     -0.964676    54A     -0.949959  
      55A     -0.940705    56A     -0.937701    57A     -0.906460  
      58A     -0.891265    59A     -0.875471    60A     -0.810173  
      61A     -0.802986    62A     -0.799229    63A     -0.796081  
      64A     -0.794835    65A     -0.747978    66A     -0.734283  
      67A     -0.732726    68A     -0.718793    69A     -0.712624  
      70A     -0.706220    71A     -0.699513    72A     -0.695579  
      73A     -0.693776    74A     -0.688297    75A     -0.685577  
      76A     -0.680262    77A     -0.666943    78A     -0.666012  
      79A     -0.662692    80A     -0.659182    81A     -0.658748  
      82A     -0.654140    83A     -0.649450    84A     -0.643841  
      85A     -0.635197    86A     -0.631366    87A     -0.630519  
      88A     -0.629628    89A     -0.626544    90A     -0.623222  
      91A     -0.610765    92A     -0.609723    93A     -0.590483  
      94A     -0.577498    95A     -0.573573    96A     -0.567879  
      97A     -0.562800    98A     -0.559261    99A     -0.550688  
     100A     -0.549556   101A     -0.534032   102A     -0.531882  
     103A     -0.530944   104A     -0.521721   105A     -0.515625  
     106A     -0.506948   107A     -0.501824   108A     -0.490058  
     109A     -0.488324   110A     -0.474301   111A     -0.462458  
     112A     -0.460155   113A     -0.457193   114A     -0.448935  
     115A     -0.444874   116A     -0.443778   117A     -0.441453  
     118A     -0.440704   119A     -0.435632   120A     -0.433443  
     121A     -0.386650   122A     -0.382313   123A     -0.378274  
     124A     -0.376951   125A     -0.369816  

    Virtual:                                                              

     126A      0.012391   127A      0.015171   128A      0.018107  
     129A      0.023417   130A      0.024713   131A      0.030514  
     132A      0.031757   133A      0.034450   134A      0.035081  
     135A      0.038011   136A      0.039131   137A      0.039815  
     138A      0.041321   139A      0.045284   140A      0.046327  
     141A      0.048020   142A      0.053276   143A      0.055276  
     144A      0.055837   145A      0.058715   146A      0.060653  
     147A      0.061674   148A      0.064491   149A      0.066544  
     150A      0.069266   151A      0.072473   152A      0.073451  
     153A      0.074506   154A      0.075873   155A      0.078598  
     156A      0.082044   157A      0.083320   158A      0.084173  
     159A      0.085528   160A      0.086569   161A      0.087568  
     162A      0.089745   163A      0.091422   164A      0.092255  
     165A      0.093014   166A      0.094790   167A      0.096854  
     168A      0.099488   169A      0.100782   170A      0.102643  
     171A      0.103724   172A      0.105512   173A      0.107058  
     174A      0.109563   175A      0.111081   176A      0.112799  
     177A      0.113658   178A      0.113812   179A      0.116192  
     180A      0.116558   181A      0.118109   182A      0.119068  
     183A      0.120477   184A      0.121451   185A      0.123426  
     186A      0.124053   187A      0.125057   188A      0.126861  
     189A      0.126984   190A      0.128092   191A      0.129308  
     192A      0.131372   193A      0.131853   194A      0.132484  
     195A      0.134227   196A      0.135570   197A      0.136422  
     198A      0.138736   199A      0.140576   200A      0.141836  
     201A      0.143314   202A      0.144841   203A      0.145904  
     204A      0.147160   205A      0.147674   206A      0.150062  
     207A      0.153246   208A      0.154245   209A      0.157583  
     210A      0.158889   211A      0.159573   212A      0.161237  
     213A      0.162776   214A      0.163715   215A      0.166601  
     216A      0.166976   217A      0.168055   218A      0.169403  
     219A      0.170037   220A      0.170775   221A      0.173703  
     222A      0.175559   223A      0.176293   224A      0.177730  
     225A      0.179677   226A      0.181658   227A      0.183195  
     228A      0.185701   229A      0.186878   230A      0.188626  
     231A      0.189178   232A      0.190496   233A      0.191710  
     234A      0.194870   235A      0.196233   236A      0.199472  
     237A      0.200976   238A      0.202648   239A      0.203971  
     240A      0.204673   241A      0.206977   242A      0.207627  
     243A      0.210900   244A      0.212366   245A      0.214413  
     246A      0.215068   247A      0.215985   248A      0.217383  
     249A      0.218493   250A      0.220317   251A      0.220459  
     252A      0.224404   253A      0.224831   254A      0.227170  
     255A      0.229076   256A      0.231139   257A      0.231876  
     258A      0.233971   259A      0.236039   260A      0.237349  
     261A      0.238389   262A      0.239530   263A      0.240860  
     264A      0.242335   265A      0.244611   266A      0.245027  
     267A      0.247139   268A      0.248348   269A      0.250100  
     270A      0.251661   271A      0.253183   272A      0.254471  
     273A      0.254641   274A      0.256131   275A      0.258976  
     276A      0.260785   277A      0.262054   278A      0.263652  
     279A      0.264946   280A      0.265308   281A      0.265668  
     282A      0.267940   283A      0.268522   284A      0.270019  
     285A      0.271237   286A      0.272899   287A      0.274316  
     288A      0.276743   289A      0.276977   290A      0.277970  
     291A      0.278402   292A      0.279630   293A      0.280636  
     294A      0.282736   295A      0.283963   296A      0.285221  
     297A      0.286383   298A      0.287273   299A      0.289204  
     300A      0.290726   301A      0.291085   302A      0.292913  
     303A      0.293937   304A      0.297453   305A      0.298751  
     306A      0.299847   307A      0.300010   308A      0.302143  
     309A      0.302528   310A      0.303398   311A      0.304312  
     312A      0.306443   313A      0.308131   314A      0.310192  
     315A      0.310931   316A      0.311731   317A      0.312101  
     318A      0.313699   319A      0.315735   320A      0.316293  
     321A      0.319828   322A      0.320219   323A      0.320784  
     324A      0.320889   325A      0.324585   326A      0.326291  
     327A      0.327732   328A      0.327945   329A      0.328860  
     330A      0.329961   331A      0.331026   332A      0.331331  
     333A      0.332723   334A      0.333277   335A      0.334853  
     336A      0.336671   337A      0.338815   338A      0.339718  
     339A      0.341940   340A      0.343719   341A      0.344781  
     342A      0.347203   343A      0.348510   344A      0.350220  
     345A      0.351133   346A      0.353433   347A      0.354296  
     348A      0.355309   349A      0.356809   350A      0.359514  
     351A      0.360338   352A      0.362937   353A      0.364014  
     354A      0.364866   355A      0.366623   356A      0.368486  
     357A      0.368617   358A      0.370409   359A      0.371741  
     360A      0.372853   361A      0.374330   362A      0.375691  
     363A      0.376407   364A      0.377611   365A      0.380202  
     366A      0.381781   367A      0.384568   368A      0.385090  
     369A      0.386350   370A      0.386856   371A      0.389697  
     372A      0.390372   373A      0.392014   374A      0.393276  
     375A      0.393946   376A      0.395371   377A      0.395795  
     378A      0.397357   379A      0.399924   380A      0.400729  
     381A      0.402127   382A      0.403013   383A      0.405198  
     384A      0.405627   385A      0.405996   386A      0.406618  
     387A      0.410268   388A      0.411180   389A      0.414315  
     390A      0.415040   391A      0.415669   392A      0.418540  
     393A      0.420168   394A      0.420592   395A      0.421093  
     396A      0.422850   397A      0.425331   398A      0.427509  
     399A      0.428289   400A      0.430174   401A      0.430756  
     402A      0.432682   403A      0.433393   404A      0.433996  
     405A      0.436306   406A      0.437035   407A      0.438972  
     408A      0.439829   409A      0.442389   410A      0.443221  
     411A      0.445292   412A      0.446261   413A      0.446968  
     414A      0.448819   415A      0.450279   416A      0.451003  
     417A      0.451941   418A      0.454202   419A      0.455777  
     420A      0.457521   421A      0.459461   422A      0.460741  
     423A      0.462484   424A      0.462674   425A      0.465058  
     426A      0.465684   427A      0.465925   428A      0.468007  
     429A      0.468980   430A      0.469609   431A      0.471777  
     432A      0.472125   433A      0.474941   434A      0.476384  
     435A      0.477215   436A      0.478122   437A      0.480214  
     438A      0.481113   439A      0.482703   440A      0.484036  
     441A      0.485930   442A      0.487582   443A      0.488912  
     444A      0.489314   445A      0.490726   446A      0.491868  
     447A      0.493133   448A      0.494180   449A      0.495342  
     450A      0.497699   451A      0.500428   452A      0.501217  
     453A      0.503255   454A      0.504449   455A      0.505933  
     456A      0.506474   457A      0.507621   458A      0.509464  
     459A      0.510210   460A      0.512377   461A      0.512898  
     462A      0.515946   463A      0.518502   464A      0.519551  
     465A      0.523582   466A      0.524053   467A      0.524963  
     468A      0.527086   469A      0.528965   470A      0.529726  
     471A      0.530350   472A      0.531046   473A      0.532422  
     474A      0.534645   475A      0.536512   476A      0.537280  
     477A      0.538469   478A      0.540186   479A      0.542916  
     480A      0.544765   481A      0.545861   482A      0.546395  
     483A      0.547719   484A      0.548697   485A      0.552138  
     486A      0.553170   487A      0.554329   488A      0.556349  
     489A      0.559535   490A      0.560198   491A      0.562353  
     492A      0.565144   493A      0.565441   494A      0.567955  
     495A      0.568777   496A      0.571080   497A      0.572276  
     498A      0.573038   499A      0.574385   500A      0.576319  
     501A      0.579600   502A      0.581395   503A      0.583206  
     504A      0.583846   505A      0.585176   506A      0.587327  
     507A      0.588300   508A      0.589508   509A      0.593041  
     510A      0.594219   511A      0.595271   512A      0.597257  
     513A      0.597990   514A      0.601207   515A      0.603417  
     516A      0.604738   517A      0.605069   518A      0.606268  
     519A      0.608287   520A      0.613324   521A      0.615253  
     522A      0.616549   523A      0.617710   524A      0.618915  
     525A      0.620200   526A      0.623154   527A      0.623576  
     528A      0.624758   529A      0.627043   530A      0.629182  
     531A      0.631161   532A      0.632132   533A      0.634038  
     534A      0.635477   535A      0.636472   536A      0.637587  
     537A      0.637811   538A      0.643124   539A      0.643337  
     540A      0.644388   541A      0.646113   542A      0.648091  
     543A      0.650081   544A      0.650370   545A      0.652509  
     546A      0.655297   547A      0.656913   548A      0.657928  
     549A      0.659651   550A      0.660723   551A      0.661814  
     552A      0.663297   553A      0.663491   554A      0.664790  
     555A      0.666737   556A      0.668617   557A      0.669476  
     558A      0.669720   559A      0.671677   560A      0.673823  
     561A      0.675086   562A      0.678600   563A      0.679639  
     564A      0.681542   565A      0.683074   566A      0.684214  
     567A      0.685177   568A      0.686354   569A      0.687488  
     570A      0.690523   571A      0.692504   572A      0.693691  
     573A      0.695096   574A      0.695793   575A      0.698225  
     576A      0.698402   577A      0.699308   578A      0.701371  
     579A      0.703424   580A      0.703910   581A      0.704693  
     582A      0.705862   583A      0.708347   584A      0.708893  
     585A      0.710991   586A      0.712332   587A      0.714874  
     588A      0.716433   589A      0.717161   590A      0.718991  
     591A      0.721133   592A      0.721684   593A      0.724100  
     594A      0.727095   595A      0.728821   596A      0.729209  
     597A      0.730337   598A      0.731450   599A      0.732242  
     600A      0.733868   601A      0.736307   602A      0.737724  
     603A      0.739060   604A      0.740317   605A      0.741134  
     606A      0.742422   607A      0.744772   608A      0.746069  
     609A      0.747912   610A      0.748666   611A      0.749771  
     612A      0.751604   613A      0.751792   614A      0.753767  
     615A      0.755223   616A      0.758084   617A      0.759508  
     618A      0.761596   619A      0.762700   620A      0.763830  
     621A      0.765522   622A      0.765974   623A      0.766895  
     624A      0.768343   625A      0.771599   626A      0.772148  
     627A      0.773192   628A      0.774790   629A      0.775703  
     630A      0.778374   631A      0.779087   632A      0.780723  
     633A      0.782383   634A      0.783996   635A      0.784418  
     636A      0.786283   637A      0.787449   638A      0.787958  
     639A      0.788733   640A      0.790764   641A      0.792379  
     642A      0.795417   643A      0.795732   644A      0.798327  
     645A      0.799441   646A      0.799894   647A      0.800925  
     648A      0.803034   649A      0.804171   650A      0.806746  
     651A      0.807667   652A      0.809918   653A      0.810591  
     654A      0.811818   655A      0.813484   656A      0.814715  
     657A      0.815695   658A      0.817299   659A      0.820888  
     660A      0.821487   661A      0.821784   662A      0.822461  
     663A      0.824529   664A      0.826821   665A      0.827806  
     666A      0.828295   667A      0.832416   668A      0.833236  
     669A      0.834441   670A      0.836524   671A      0.838885  
     672A      0.839581   673A      0.840758   674A      0.843711  
     675A      0.843995   676A      0.846616   677A      0.847780  
     678A      0.849009   679A      0.851175   680A      0.853492  
     681A      0.854890   682A      0.855743   683A      0.856832  
     684A      0.859477   685A      0.862207   686A      0.862476  
     687A      0.862700   688A      0.864395   689A      0.865809  
     690A      0.867127   691A      0.869221   692A      0.870290  
     693A      0.871075   694A      0.874502   695A      0.875241  
     696A      0.876254   697A      0.876938   698A      0.879004  
     699A      0.880566   700A      0.881199   701A      0.881453  
     702A      0.883324   703A      0.886412   704A      0.887023  
     705A      0.889526   706A      0.890127   707A      0.892525  
     708A      0.893466   709A      0.894461   710A      0.896044  
     711A      0.898485   712A      0.900862   713A      0.900945  
     714A      0.902284   715A      0.905820   716A      0.909432  
     717A      0.910373   718A      0.911238   719A      0.913382  
     720A      0.915566   721A      0.916194   722A      0.916630  
     723A      0.919261   724A      0.920745   725A      0.921790  
     726A      0.922844   727A      0.923424   728A      0.925509  
     729A      0.926779   730A      0.927314   731A      0.928962  
     732A      0.930476   733A      0.932295   734A      0.933850  
     735A      0.934540   736A      0.935940   737A      0.938077  
     738A      0.938779   739A      0.940166   740A      0.942144  
     741A      0.945698   742A      0.947262   743A      0.949926  
     744A      0.951571   745A      0.953232   746A      0.953684  
     747A      0.956206   748A      0.957725   749A      0.958857  
     750A      0.959443   751A      0.960666   752A      0.963175  
     753A      0.965622   754A      0.966468   755A      0.967006  
     756A      0.969157   757A      0.969984   758A      0.971853  
     759A      0.973621   760A      0.977396   761A      0.978641  
     762A      0.979336   763A      0.980701   764A      0.982876  
     765A      0.983207   766A      0.985477   767A      0.986570  
     768A      0.987655   769A      0.992112   770A      0.995186  
     771A      0.996899   772A      0.997506   773A      0.997970  
     774A      1.000630   775A      1.001662   776A      1.003062  
     777A      1.005394   778A      1.006286   779A      1.007983  
     780A      1.009407   781A      1.010537   782A      1.012970  
     783A      1.015191   784A      1.017355   785A      1.020089  
     786A      1.020606   787A      1.021428   788A      1.022200  
     789A      1.024024   790A      1.025255   791A      1.028708  
     792A      1.029557   793A      1.030692   794A      1.034952  
     795A      1.036462   796A      1.037047   797A      1.039434  
     798A      1.040275   799A      1.041513   800A      1.044106  
     801A      1.046656   802A      1.049439   803A      1.051314  
     804A      1.051417   805A      1.051932   806A      1.054169  
     807A      1.055361   808A      1.057455   809A      1.060491  
     810A      1.062433   811A      1.063924   812A      1.066406  
     813A      1.068578   814A      1.070261   815A      1.071195  
     816A      1.074720   817A      1.075440   818A      1.076118  
     819A      1.080032   820A      1.081745   821A      1.082336  
     822A      1.083888   823A      1.086665   824A      1.087626  
     825A      1.090170   826A      1.090534   827A      1.091235  
     828A      1.092904   829A      1.095089   830A      1.096853  
     831A      1.097098   832A      1.100167   833A      1.102559  
     834A      1.104991   835A      1.108153   836A      1.110549  
     837A      1.111232   838A      1.112728   839A      1.114911  
     840A      1.118402   841A      1.118500   842A      1.119686  
     843A      1.121114   844A      1.124494   845A      1.125130  
     846A      1.126541   847A      1.128145   848A      1.128944  
     849A      1.129112   850A      1.130389   851A      1.131584  
     852A      1.132691   853A      1.136424   854A      1.137939  
     855A      1.140501   856A      1.141022   857A      1.141869  
     858A      1.142851   859A      1.146816   860A      1.147789  
     861A      1.150548   862A      1.152385   863A      1.153164  
     864A      1.153267   865A      1.157783   866A      1.159039  
     867A      1.161734   868A      1.164277   869A      1.166967  
     870A      1.168566   871A      1.169286   872A      1.170808  
     873A      1.173340   874A      1.176063   875A      1.177655  
     876A      1.180114   877A      1.180899   878A      1.183712  
     879A      1.186291   880A      1.188058   881A      1.188874  
     882A      1.189900   883A      1.192500   884A      1.197310  
     885A      1.198650   886A      1.199305   887A      1.200164  
     888A      1.201638   889A      1.202202   890A      1.203934  
     891A      1.206430   892A      1.207432   893A      1.208243  
     894A      1.210956   895A      1.212676   896A      1.213735  
     897A      1.217329   898A      1.218613   899A      1.221160  
     900A      1.224686   901A      1.224902   902A      1.228636  
     903A      1.229194   904A      1.230472   905A      1.231950  
     906A      1.232632   907A      1.233504   908A      1.237530  
     909A      1.237917   910A      1.241188   911A      1.241775  
     912A      1.244095   913A      1.246093   914A      1.247072  
     915A      1.248258   916A      1.250358   917A      1.251567  
     918A      1.255768   919A      1.257762   920A      1.257948  
     921A      1.260043   922A      1.261409   923A      1.263778  
     924A      1.267878   925A      1.268719   926A      1.270183  
     927A      1.272316   928A      1.274089   929A      1.274724  
     930A      1.276614   931A      1.278543   932A      1.279536  
     933A      1.281178   934A      1.281559   935A      1.282356  
     936A      1.287677   937A      1.289341   938A      1.289768  
     939A      1.292505   940A      1.294823   941A      1.296429  
     942A      1.298981   943A      1.300575   944A      1.303653  
     945A      1.305073   946A      1.307835   947A      1.309823  
     948A      1.310666   949A      1.313205   950A      1.316145  
     951A      1.317751   952A      1.321777   953A      1.322840  
     954A      1.324277   955A      1.324900   956A      1.327361  
     957A      1.329334   958A      1.333550   959A      1.334831  
     960A      1.337606   961A      1.339121   962A      1.341888  
     963A      1.344169   964A      1.346324   965A      1.350656  
     966A      1.351630   967A      1.354332   968A      1.355930  
     969A      1.357781   970A      1.358600   971A      1.360892  
     972A      1.361878   973A      1.365130   974A      1.366645  
     975A      1.367625   976A      1.370275   977A      1.373666  
     978A      1.374867   979A      1.376816   980A      1.377181  
     981A      1.381207   982A      1.382869   983A      1.387320  
     984A      1.387869   985A      1.390061   986A      1.393372  
     987A      1.395014   988A      1.396978   989A      1.398034  
     990A      1.398709   991A      1.399759   992A      1.403631  
     993A      1.405896   994A      1.409528   995A      1.409843  
     996A      1.411785   997A      1.414181   998A      1.415974  
     999A      1.418833  1000A      1.420827  1001A      1.421246  
    1002A      1.424605  1003A      1.425240  1004A      1.427100  
    1005A      1.429949  1006A      1.430605  1007A      1.433511  
    1008A      1.437029  1009A      1.438761  1010A      1.439211  
    1011A      1.442454  1012A      1.444207  1013A      1.445954  
    1014A      1.449832  1015A      1.452725  1016A      1.452892  
    1017A      1.454711  1018A      1.455411  1019A      1.459558  
    1020A      1.460280  1021A      1.460851  1022A      1.465732  
    1023A      1.467125  1024A      1.468293  1025A      1.472041  
    1026A      1.475641  1027A      1.477351  1028A      1.480554  
    1029A      1.481713  1030A      1.483786  1031A      1.486020  
    1032A      1.486159  1033A      1.489090  1034A      1.491488  
    1035A      1.492035  1036A      1.494764  1037A      1.497422  
    1038A      1.499674  1039A      1.500916  1040A      1.504364  
    1041A      1.505146  1042A      1.506703  1043A      1.510589  
    1044A      1.516399  1045A      1.517080  1046A      1.520127  
    1047A      1.521759  1048A      1.524296  1049A      1.528916  
    1050A      1.530800  1051A      1.532297  1052A      1.532503  
    1053A      1.535075  1054A      1.535341  1055A      1.537991  
    1056A      1.538603  1057A      1.543253  1058A      1.544405  
    1059A      1.546112  1060A      1.548832  1061A      1.549645  
    1062A      1.550171  1063A      1.553644  1064A      1.555322  
    1065A      1.556738  1066A      1.558161  1067A      1.559514  
    1068A      1.562959  1069A      1.564141  1070A      1.567778  
    1071A      1.568546  1072A      1.571003  1073A      1.572384  
    1074A      1.574048  1075A      1.574474  1076A      1.575756  
    1077A      1.580791  1078A      1.582704  1079A      1.582981  
    1080A      1.586021  1081A      1.587465  1082A      1.591328  
    1083A      1.593396  1084A      1.596042  1085A      1.596212  
    1086A      1.597527  1087A      1.601179  1088A      1.601731  
    1089A      1.603871  1090A      1.605023  1091A      1.607898  
    1092A      1.608039  1093A      1.611180  1094A      1.613065  
    1095A      1.617021  1096A      1.618131  1097A      1.620181  
    1098A      1.621654  1099A      1.623908  1100A      1.625622  
    1101A      1.626946  1102A      1.629886  1103A      1.632234  
    1104A      1.635114  1105A      1.635700  1106A      1.636654  
    1107A      1.641836  1108A      1.642756  1109A      1.646278  
    1110A      1.646577  1111A      1.647277  1112A      1.649096  
    1113A      1.649958  1114A      1.655046  1115A      1.655888  
    1116A      1.659781  1117A      1.665803  1118A      1.666020  
    1119A      1.669109  1120A      1.669543  1121A      1.671363  
    1122A      1.675493  1123A      1.677387  1124A      1.678006  
    1125A      1.679511  1126A      1.682181  1127A      1.683509  
    1128A      1.688132  1129A      1.689022  1130A      1.689572  
    1131A      1.692557  1132A      1.695362  1133A      1.695593  
    1134A      1.698081  1135A      1.701190  1136A      1.703577  
    1137A      1.704793  1138A      1.706415  1139A      1.710780  
    1140A      1.713859  1141A      1.716811  1142A      1.717512  
    1143A      1.719228  1144A      1.724392  1145A      1.726610  
    1146A      1.726912  1147A      1.728754  1148A      1.730544  
    1149A      1.731488  1150A      1.732963  1151A      1.736319  
    1152A      1.737427  1153A      1.738583  1154A      1.740524  
    1155A      1.744425  1156A      1.745549  1157A      1.748722  
    1158A      1.750536  1159A      1.751603  1160A      1.753552  
    1161A      1.754883  1162A      1.758215  1163A      1.760138  
    1164A      1.763429  1165A      1.764106  1166A      1.767300  
    1167A      1.768351  1168A      1.771555  1169A      1.773478  
    1170A      1.775487  1171A      1.777684  1172A      1.779952  
    1173A      1.780376  1174A      1.784568  1175A      1.785183  
    1176A      1.786012  1177A      1.786696  1178A      1.791403  
    1179A      1.793838  1180A      1.795573  1181A      1.796477  
    1182A      1.799479  1183A      1.801943  1184A      1.803628  
    1185A      1.805175  1186A      1.806669  1187A      1.807680  
    1188A      1.808666  1189A      1.813113  1190A      1.814762  
    1191A      1.817136  1192A      1.820778  1193A      1.821429  
    1194A      1.824686  1195A      1.825283  1196A      1.825727  
    1197A      1.827314  1198A      1.829130  1199A      1.831737  
    1200A      1.837261  1201A      1.838578  1202A      1.839012  
    1203A      1.839543  1204A      1.840148  1205A      1.843692  
    1206A      1.846246  1207A      1.848495  1208A      1.849572  
    1209A      1.851063  1210A      1.853222  1211A      1.855489  
    1212A      1.857442  1213A      1.859430  1214A      1.859760  
    1215A      1.863399  1216A      1.863679  1217A      1.865679  
    1218A      1.865966  1219A      1.870224  1220A      1.871327  
    1221A      1.873525  1222A      1.876550  1223A      1.877088  
    1224A      1.877938  1225A      1.881487  1226A      1.882629  
    1227A      1.883451  1228A      1.885262  1229A      1.889910  
    1230A      1.891972  1231A      1.892976  1232A      1.893615  
    1233A      1.894334  1234A      1.897435  1235A      1.897774  
    1236A      1.899467  1237A      1.900568  1238A      1.905745  
    1239A      1.907176  1240A      1.911882  1241A      1.913543  
    1242A      1.914179  1243A      1.915326  1244A      1.916113  
    1245A      1.917394  1246A      1.921263  1247A      1.922043  
    1248A      1.924052  1249A      1.925739  1250A      1.930009  
    1251A      1.930514  1252A      1.932667  1253A      1.933435  
    1254A      1.933819  1255A      1.936155  1256A      1.937174  
    1257A      1.940402  1258A      1.941687  1259A      1.944796  
    1260A      1.947594  1261A      1.949607  1262A      1.952586  
    1263A      1.953456  1264A      1.954613  1265A      1.955257  
    1266A      1.956267  1267A      1.959237  1268A      1.962778  
    1269A      1.965378  1270A      1.967926  1271A      1.968969  
    1272A      1.969373  1273A      1.971407  1274A      1.973061  
    1275A      1.975703  1276A      1.976689  1277A      1.978134  
    1278A      1.979231  1279A      1.980469  1280A      1.982385  
    1281A      1.983650  1282A      1.986767  1283A      1.989575  
    1284A      1.989584  1285A      1.993059  1286A      1.995287  
    1287A      1.995553  1288A      1.998103  1289A      1.999690  
    1290A      2.000978  1291A      2.003311  1292A      2.004920  
    1293A      2.008223  1294A      2.009135  1295A      2.009192  
    1296A      2.012366  1297A      2.016816  1298A      2.019387  
    1299A      2.019831  1300A      2.021541  1301A      2.022152  
    1302A      2.024561  1303A      2.025659  1304A      2.026973  
    1305A      2.027296  1306A      2.032022  1307A      2.034165  
    1308A      2.035737  1309A      2.038438  1310A      2.038914  
    1311A      2.040900  1312A      2.042461  1313A      2.046371  
    1314A      2.046653  1315A      2.049570  1316A      2.052670  
    1317A      2.053468  1318A      2.055184  1319A      2.058176  
    1320A      2.060209  1321A      2.063898  1322A      2.064079  
    1323A      2.066903  1324A      2.072072  1325A      2.073065  
    1326A      2.073262  1327A      2.074252  1328A      2.075484  
    1329A      2.078008  1330A      2.078204  1331A      2.081112  
    1332A      2.083353  1333A      2.083893  1334A      2.087240  
    1335A      2.087784  1336A      2.089637  1337A      2.090032  
    1338A      2.093271  1339A      2.094563  1340A      2.096856  
    1341A      2.099077  1342A      2.100238  1343A      2.102444  
    1344A      2.102798  1345A      2.106853  1346A      2.107687  
    1347A      2.108858  1348A      2.112427  1349A      2.114746  
    1350A      2.115360  1351A      2.117074  1352A      2.117918  
    1353A      2.119191  1354A      2.122955  1355A      2.124574  
    1356A      2.125270  1357A      2.127744  1358A      2.129127  
    1359A      2.132664  1360A      2.133658  1361A      2.135583  
    1362A      2.137914  1363A      2.140237  1364A      2.141905  
    1365A      2.143239  1366A      2.145031  1367A      2.145865  
    1368A      2.148167  1369A      2.149403  1370A      2.151917  
    1371A      2.154093  1372A      2.154363  1373A      2.155109  
    1374A      2.156552  1375A      2.159709  1376A      2.162760  
    1377A      2.166177  1378A      2.167744  1379A      2.167980  
    1380A      2.171758  1381A      2.172807  1382A      2.173831  
    1383A      2.177154  1384A      2.178365  1385A      2.179228  
    1386A      2.182642  1387A      2.183606  1388A      2.184381  
    1389A      2.184511  1390A      2.187058  1391A      2.187602  
    1392A      2.190028  1393A      2.190588  1394A      2.193417  
    1395A      2.196347  1396A      2.198126  1397A      2.200093  
    1398A      2.201758  1399A      2.202723  1400A      2.203201  
    1401A      2.205806  1402A      2.207356  1403A      2.209033  
    1404A      2.210680  1405A      2.215433  1406A      2.215849  
    1407A      2.216770  1408A      2.218712  1409A      2.219091  
    1410A      2.221472  1411A      2.223063  1412A      2.224582  
    1413A      2.227220  1414A      2.228683  1415A      2.230235  
    1416A      2.230955  1417A      2.232794  1418A      2.234856  
    1419A      2.237118  1420A      2.237583  1421A      2.239553  
    1422A      2.239983  1423A      2.242227  1424A      2.242929  
    1425A      2.247847  1426A      2.248683  1427A      2.250883  
    1428A      2.252365  1429A      2.255176  1430A      2.255402  
    1431A      2.258081  1432A      2.259694  1433A      2.261013  
    1434A      2.261466  1435A      2.265525  1436A      2.266844  
    1437A      2.267515  1438A      2.268148  1439A      2.269502  
    1440A      2.271943  1441A      2.273052  1442A      2.273652  
    1443A      2.274186  1444A      2.275212  1445A      2.275984  
    1446A      2.280347  1447A      2.280950  1448A      2.284247  
    1449A      2.285765  1450A      2.287757  1451A      2.292307  
    1452A      2.294051  1453A      2.295082  1454A      2.296683  
    1455A      2.297894  1456A      2.300411  1457A      2.303123  
    1458A      2.304375  1459A      2.307131  1460A      2.308067  
    1461A      2.310932  1462A      2.313347  1463A      2.313935  
    1464A      2.315587  1465A      2.318736  1466A      2.320666  
    1467A      2.321977  1468A      2.325653  1469A      2.325853  
    1470A      2.328608  1471A      2.333446  1472A      2.333504  
    1473A      2.334568  1474A      2.334920  1475A      2.339122  
    1476A      2.339738  1477A      2.340118  1478A      2.344243  
    1479A      2.347818  1480A      2.350110  1481A      2.352503  
    1482A      2.353608  1483A      2.356336  1484A      2.358669  
    1485A      2.358961  1486A      2.359150  1487A      2.364943  
    1488A      2.366408  1489A      2.367611  1490A      2.367831  
    1491A      2.368655  1492A      2.371562  1493A      2.372033  
    1494A      2.373288  1495A      2.375831  1496A      2.378417  
    1497A      2.379207  1498A      2.380599  1499A      2.383163  
    1500A      2.384411  1501A      2.388369  1502A      2.389320  
    1503A      2.390981  1504A      2.391940  1505A      2.394121  
    1506A      2.396422  1507A      2.397893  1508A      2.402780  
    1509A      2.406627  1510A      2.407877  1511A      2.410818  
    1512A      2.414541  1513A      2.415607  1514A      2.416944  
    1515A      2.418724  1516A      2.420828  1517A      2.421488  
    1518A      2.422680  1519A      2.424659  1520A      2.425933  
    1521A      2.427721  1522A      2.430683  1523A      2.432460  
    1524A      2.435729  1525A      2.439002  1526A      2.440266  
    1527A      2.442896  1528A      2.448313  1529A      2.450137  
    1530A      2.452311  1531A      2.456366  1532A      2.456678  
    1533A      2.458042  1534A      2.459170  1535A      2.462619  
    1536A      2.463338  1537A      2.463845  1538A      2.468040  
    1539A      2.471816  1540A      2.472864  1541A      2.475997  
    1542A      2.477807  1543A      2.478849  1544A      2.481809  
    1545A      2.482419  1546A      2.483613  1547A      2.487089  
    1548A      2.488758  1549A      2.492221  1550A      2.493372  
    1551A      2.495549  1552A      2.496883  1553A      2.497034  
    1554A      2.499815  1555A      2.504894  1556A      2.509666  
    1557A      2.509876  1558A      2.510947  1559A      2.512320  
    1560A      2.515625  1561A      2.520194  1562A      2.521837  
    1563A      2.523763  1564A      2.527819  1565A      2.529601  
    1566A      2.529863  1567A      2.532033  1568A      2.534986  
    1569A      2.536705  1570A      2.537563  1571A      2.539056  
    1572A      2.541938  1573A      2.543394  1574A      2.545305  
    1575A      2.548285  1576A      2.552145  1577A      2.554996  
    1578A      2.557545  1579A      2.559859  1580A      2.560600  
    1581A      2.561058  1582A      2.563384  1583A      2.565248  
    1584A      2.567063  1585A      2.569175  1586A      2.574029  
    1587A      2.575424  1588A      2.577553  1589A      2.578091  
    1590A      2.582048  1591A      2.584332  1592A      2.589102  
    1593A      2.591696  1594A      2.592735  1595A      2.594876  
    1596A      2.597566  1597A      2.599458  1598A      2.604161  
    1599A      2.606186  1600A      2.609081  1601A      2.610789  
    1602A      2.614270  1603A      2.615870  1604A      2.617279  
    1605A      2.618496  1606A      2.625007  1607A      2.627374  
    1608A      2.627707  1609A      2.633658  1610A      2.635178  
    1611A      2.637176  1612A      2.638055  1613A      2.640026  
    1614A      2.643194  1615A      2.643454  1616A      2.647701  
    1617A      2.649898  1618A      2.651845  1619A      2.652557  
    1620A      2.657058  1621A      2.658908  1622A      2.662196  
    1623A      2.664438  1624A      2.668077  1625A      2.668489  
    1626A      2.671218  1627A      2.673286  1628A      2.676205  
    1629A      2.679190  1630A      2.682859  1631A      2.683738  
    1632A      2.690256  1633A      2.690826  1634A      2.692149  
    1635A      2.694210  1636A      2.695677  1637A      2.697198  
    1638A      2.697560  1639A      2.701405  1640A      2.706816  
    1641A      2.708695  1642A      2.711020  1643A      2.712081  
    1644A      2.713397  1645A      2.718000  1646A      2.720091  
    1647A      2.724909  1648A      2.726111  1649A      2.727354  
    1650A      2.729667  1651A      2.734396  1652A      2.736116  
    1653A      2.739739  1654A      2.742488  1655A      2.748594  
    1656A      2.748940  1657A      2.751549  1658A      2.754498  
    1659A      2.758554  1660A      2.760671  1661A      2.761756  
    1662A      2.763749  1663A      2.765794  1664A      2.768154  
    1665A      2.769278  1666A      2.771628  1667A      2.774853  
    1668A      2.776918  1669A      2.780438  1670A      2.785694  
    1671A      2.787878  1672A      2.789265  1673A      2.793415  
    1674A      2.797382  1675A      2.799198  1676A      2.800925  
    1677A      2.803288  1678A      2.804264  1679A      2.808155  
    1680A      2.808681  1681A      2.811647  1682A      2.813144  
    1683A      2.816655  1684A      2.818258  1685A      2.820378  
    1686A      2.822436  1687A      2.826024  1688A      2.828076  
    1689A      2.830924  1690A      2.834345  1691A      2.835719  
    1692A      2.838227  1693A      2.840115  1694A      2.842327  
    1695A      2.848807  1696A      2.849225  1697A      2.853856  
    1698A      2.854403  1699A      2.856654  1700A      2.857736  
    1701A      2.860914  1702A      2.868321  1703A      2.874032  
    1704A      2.874743  1705A      2.876030  1706A      2.877750  
    1707A      2.878028  1708A      2.881015  1709A      2.883759  
    1710A      2.887650  1711A      2.890706  1712A      2.894459  
    1713A      2.895948  1714A      2.897986  1715A      2.899278  
    1716A      2.901791  1717A      2.903579  1718A      2.907459  
    1719A      2.910898  1720A      2.913478  1721A      2.913963  
    1722A      2.914849  1723A      2.916904  1724A      2.921217  
    1725A      2.922606  1726A      2.923015  1727A      2.924018  
    1728A      2.930634  1729A      2.932776  1730A      2.934264  
    1731A      2.934568  1732A      2.937301  1733A      2.942178  
    1734A      2.943743  1735A      2.946891  1736A      2.948001  
    1737A      2.950189  1738A      2.952652  1739A      2.958134  
    1740A      2.958856  1741A      2.959356  1742A      2.960297  
    1743A      2.963450  1744A      2.969619  1745A      2.970356  
    1746A      2.971095  1747A      2.977608  1748A      2.979439  
    1749A      2.982767  1750A      2.986566  1751A      2.987858  
    1752A      2.992762  1753A      2.994843  1754A      2.997527  
    1755A      2.997970  1756A      3.002658  1757A      3.003542  
    1758A      3.005335  1759A      3.008490  1760A      3.010138  
    1761A      3.016337  1762A      3.017031  1763A      3.021596  
    1764A      3.025892  1765A      3.028434  1766A      3.029444  
    1767A      3.031018  1768A      3.035805  1769A      3.036971  
    1770A      3.037802  1771A      3.041458  1772A      3.042444  
    1773A      3.043545  1774A      3.047005  1775A      3.048415  
    1776A      3.051124  1777A      3.052446  1778A      3.054924  
    1779A      3.057074  1780A      3.059355  1781A      3.061428  
    1782A      3.061806  1783A      3.063027  1784A      3.064727  
    1785A      3.068657  1786A      3.071480  1787A      3.074913  
    1788A      3.077625  1789A      3.079198  1790A      3.080592  
    1791A      3.084056  1792A      3.085907  1793A      3.087396  
    1794A      3.088891  1795A      3.092048  1796A      3.094224  
    1797A      3.095660  1798A      3.097641  1799A      3.101103  
    1800A      3.101961  1801A      3.104488  1802A      3.105811  
    1803A      3.111203  1804A      3.113943  1805A      3.117365  
    1806A      3.120018  1807A      3.120179  1808A      3.121891  
    1809A      3.126346  1810A      3.128341  1811A      3.131002  
    1812A      3.132193  1813A      3.135890  1814A      3.139166  
    1815A      3.143910  1816A      3.145570  1817A      3.146834  
    1818A      3.149060  1819A      3.150400  1820A      3.151027  
    1821A      3.154326  1822A      3.155845  1823A      3.160103  
    1824A      3.161349  1825A      3.166389  1826A      3.171340  
    1827A      3.173987  1828A      3.174928  1829A      3.177259  
    1830A      3.178774  1831A      3.180312  1832A      3.181918  
    1833A      3.187207  1834A      3.192735  1835A      3.193896  
    1836A      3.196711  1837A      3.199367  1838A      3.201015  
    1839A      3.203473  1840A      3.203943  1841A      3.203977  
    1842A      3.210484  1843A      3.213086  1844A      3.214064  
    1845A      3.217257  1846A      3.225298  1847A      3.227748  
    1848A      3.228479  1849A      3.230269  1850A      3.233438  
    1851A      3.235493  1852A      3.240076  1853A      3.242493  
    1854A      3.244770  1855A      3.249373  1856A      3.250083  
    1857A      3.254536  1858A      3.258906  1859A      3.264415  
    1860A      3.266231  1861A      3.266608  1862A      3.268586  
    1863A      3.269941  1864A      3.274196  1865A      3.275981  
    1866A      3.277209  1867A      3.280273  1868A      3.287133  
    1869A      3.289812  1870A      3.291627  1871A      3.292540  
    1872A      3.297506  1873A      3.300275  1874A      3.302083  
    1875A      3.305513  1876A      3.307996  1877A      3.311411  
    1878A      3.311784  1879A      3.316093  1880A      3.318438  
    1881A      3.320216  1882A      3.321138  1883A      3.323285  
    1884A      3.326519  1885A      3.328835  1886A      3.332870  
    1887A      3.336147  1888A      3.337207  1889A      3.339547  
    1890A      3.341658  1891A      3.344152  1892A      3.347250  
    1893A      3.354526  1894A      3.355798  1895A      3.356765  
    1896A      3.360013  1897A      3.362478  1898A      3.363401  
    1899A      3.369235  1900A      3.369519  1901A      3.373267  
    1902A      3.375554  1903A      3.377514  1904A      3.378100  
    1905A      3.382851  1906A      3.387534  1907A      3.393907  
    1908A      3.396248  1909A      3.398191  1910A      3.400213  
    1911A      3.401994  1912A      3.405514  1913A      3.413678  
    1914A      3.418163  1915A      3.419447  1916A      3.421152  
    1917A      3.421639  1918A      3.425476  1919A      3.427700  
    1920A      3.429761  1921A      3.431955  1922A      3.432323  
    1923A      3.437933  1924A      3.440207  1925A      3.446402  
    1926A      3.448771  1927A      3.451476  1928A      3.454307  
    1929A      3.457267  1930A      3.457983  1931A      3.461378  
    1932A      3.465632  1933A      3.468392  1934A      3.469327  
    1935A      3.471492  1936A      3.472177  1937A      3.476198  
    1938A      3.479653  1939A      3.485168  1940A      3.487890  
    1941A      3.490500  1942A      3.498302  1943A      3.499093  
    1944A      3.499715  1945A      3.503894  1946A      3.506408  
    1947A      3.506705  1948A      3.512817  1949A      3.514052  
    1950A      3.515634  1951A      3.521344  1952A      3.523404  
    1953A      3.527692  1954A      3.530795  1955A      3.530873  
    1956A      3.535181  1957A      3.539817  1958A      3.541327  
    1959A      3.542609  1960A      3.546872  1961A      3.547717  
    1962A      3.552465  1963A      3.554767  1964A      3.557739  
    1965A      3.562007  1966A      3.563696  1967A      3.565876  
    1968A      3.568133  1969A      3.573136  1970A      3.578416  
    1971A      3.582121  1972A      3.585910  1973A      3.587359  
    1974A      3.592996  1975A      3.595736  1976A      3.597348  
    1977A      3.599626  1978A      3.601901  1979A      3.604716  
    1980A      3.608183  1981A      3.610370  1982A      3.611590  
    1983A      3.613513  1984A      3.618431  1985A      3.620671  
    1986A      3.625457  1987A      3.628835  1988A      3.633333  
    1989A      3.634222  1990A      3.637377  1991A      3.639244  
    1992A      3.647228  1993A      3.649505  1994A      3.655514  
    1995A      3.659106  1996A      3.660216  1997A      3.661127  
    1998A      3.670128  1999A      3.671877  2000A      3.673681  
    2001A      3.679695  2002A      3.683792  2003A      3.685986  
    2004A      3.687804  2005A      3.688811  2006A      3.693256  
    2007A      3.695230  2008A      3.699559  2009A      3.702987  
    2010A      3.704426  2011A      3.709392  2012A      3.711158  
    2013A      3.714304  2014A      3.719359  2015A      3.719571  
    2016A      3.723545  2017A      3.725617  2018A      3.728611  
    2019A      3.732093  2020A      3.735409  2021A      3.738049  
    2022A      3.741273  2023A      3.742493  2024A      3.744230  
    2025A      3.749882  2026A      3.751430  2027A      3.753868  
    2028A      3.756209  2029A      3.757698  2030A      3.761515  
    2031A      3.762617  2032A      3.770276  2033A      3.774442  
    2034A      3.776650  2035A      3.782016  2036A      3.783830  
    2037A      3.785840  2038A      3.791823  2039A      3.793062  
    2040A      3.799944  2041A      3.806450  2042A      3.806899  
    2043A      3.808324  2044A      3.812622  2045A      3.814335  
    2046A      3.816355  2047A      3.822107  2048A      3.823273  
    2049A      3.824216  2050A      3.829299  2051A      3.834394  
    2052A      3.835195  2053A      3.835687  2054A      3.839430  
    2055A      3.842405  2056A      3.847724  2057A      3.848990  
    2058A      3.852748  2059A      3.860752  2060A      3.861849  
    2061A      3.867095  2062A      3.869630  2063A      3.871753  
    2064A      3.877721  2065A      3.883239  2066A      3.884454  
    2067A      3.887367  2068A      3.894965  2069A      3.896356  
    2070A      3.897258  2071A      3.897734  2072A      3.902827  
    2073A      3.907349  2074A      3.908652  2075A      3.912694  
    2076A      3.914288  2077A      3.915227  2078A      3.918522  
    2079A      3.921819  2080A      3.924159  2081A      3.928481  
    2082A      3.929772  2083A      3.931905  2084A      3.933690  
    2085A      3.937444  2086A      3.937751  2087A      3.944622  
    2088A      3.946523  2089A      3.948102  2090A      3.952838  
    2091A      3.954310  2092A      3.958194  2093A      3.959712  
    2094A      3.963008  2095A      3.965095  2096A      3.967493  
    2097A      3.970672  2098A      3.977842  2099A      3.981877  
    2100A      3.987511  2101A      3.988074  2102A      3.991504  
    2103A      3.993351  2104A      4.000471  2105A      4.002034  
    2106A      4.003369  2107A      4.008389  2108A      4.009059  
    2109A      4.012393  2110A      4.015998  2111A      4.016667  
    2112A      4.019383  2113A      4.023462  2114A      4.023698  
    2115A      4.031413  2116A      4.033280  2117A      4.033908  
    2118A      4.034916  2119A      4.037485  2120A      4.040588  
    2121A      4.041296  2122A      4.046583  2123A      4.048944  
    2124A      4.051369  2125A      4.054237  2126A      4.056676  
    2127A      4.058260  2128A      4.061654  2129A      4.065988  
    2130A      4.067961  2131A      4.073674  2132A      4.078204  
    2133A      4.084117  2134A      4.084528  2135A      4.087390  
    2136A      4.089325  2137A      4.093336  2138A      4.096875  
    2139A      4.098373  2140A      4.101249  2141A      4.101554  
    2142A      4.107744  2143A      4.109293  2144A      4.111081  
    2145A      4.115963  2146A      4.117793  2147A      4.120811  
    2148A      4.122906  2149A      4.124604  2150A      4.125690  
    2151A      4.129222  2152A      4.129481  2153A      4.132567  
    2154A      4.135209  2155A      4.137496  2156A      4.138474  
    2157A      4.140571  2158A      4.147510  2159A      4.148311  
    2160A      4.149152  2161A      4.153940  2162A      4.157164  
    2163A      4.164027  2164A      4.168693  2165A      4.170946  
    2166A      4.173783  2167A      4.177080  2168A      4.179316  
    2169A      4.180069  2170A      4.183067  2171A      4.186714  
    2172A      4.192147  2173A      4.196629  2174A      4.200994  
    2175A      4.204272  2176A      4.204941  2177A      4.208761  
    2178A      4.212117  2179A      4.214444  2180A      4.218995  
    2181A      4.222706  2182A      4.224279  2183A      4.225365  
    2184A      4.227658  2185A      4.229887  2186A      4.229983  
    2187A      4.236560  2188A      4.238713  2189A      4.246596  
    2190A      4.249104  2191A      4.249842  2192A      4.252328  
    2193A      4.254292  2194A      4.256851  2195A      4.265426  
    2196A      4.267224  2197A      4.269448  2198A      4.270760  
    2199A      4.272940  2200A      4.276338  2201A      4.279005  
    2202A      4.279669  2203A      4.282951  2204A      4.285742  
    2205A      4.288166  2206A      4.289659  2207A      4.292093  
    2208A      4.297024  2209A      4.297594  2210A      4.301542  
    2211A      4.305382  2212A      4.310780  2213A      4.314374  
    2214A      4.316703  2215A      4.319131  2216A      4.322214  
    2217A      4.322935  2218A      4.324430  2219A      4.329137  
    2220A      4.330517  2221A      4.331541  2222A      4.334802  
    2223A      4.339146  2224A      4.341801  2225A      4.345392  
    2226A      4.353630  2227A      4.353812  2228A      4.360634  
    2229A      4.362003  2230A      4.362584  2231A      4.364058  
    2232A      4.370545  2233A      4.375421  2234A      4.377074  
    2235A      4.379624  2236A      4.382684  2237A      4.387036  
    2238A      4.387823  2239A      4.391310  2240A      4.394553  
    2241A      4.397217  2242A      4.399769  2243A      4.402888  
    2244A      4.407339  2245A      4.412361  2246A      4.416131  
    2247A      4.418666  2248A      4.420292  2249A      4.422485  
    2250A      4.425228  2251A      4.431253  2252A      4.434441  
    2253A      4.441030  2254A      4.444313  2255A      4.445687  
    2256A      4.447070  2257A      4.449384  2258A      4.450511  
    2259A      4.450598  2260A      4.452013  2261A      4.456582  
    2262A      4.460953  2263A      4.464461  2264A      4.470648  
    2265A      4.474882  2266A      4.478603  2267A      4.479149  
    2268A      4.479763  2269A      4.481612  2270A      4.484219  
    2271A      4.486500  2272A      4.491425  2273A      4.492249  
    2274A      4.492987  2275A      4.495586  2276A      4.498421  
    2277A      4.504273  2278A      4.504828  2279A      4.509152  
    2280A      4.510599  2281A      4.514197  2282A      4.517433  
    2283A      4.520137  2284A      4.522333  2285A      4.527467  
    2286A      4.531590  2287A      4.532204  2288A      4.534984  
    2289A      4.537670  2290A      4.540879  2291A      4.544342  
    2292A      4.544852  2293A      4.546542  2294A      4.549621  
    2295A      4.550364  2296A      4.553045  2297A      4.555931  
    2298A      4.561239  2299A      4.563591  2300A      4.568499  
    2301A      4.569302  2302A      4.572482  2303A      4.575246  
    2304A      4.576473  2305A      4.579988  2306A      4.584192  
    2307A      4.588220  2308A      4.588439  2309A      4.591032  
    2310A      4.593656  2311A      4.596510  2312A      4.599479  
    2313A      4.601002  2314A      4.604702  2315A      4.606435  
    2316A      4.610220  2317A      4.611526  2318A      4.613134  
    2319A      4.614514  2320A      4.618271  2321A      4.621284  
    2322A      4.624097  2323A      4.628704  2324A      4.630757  
    2325A      4.633357  2326A      4.637333  2327A      4.639132  
    2328A      4.640598  2329A      4.645249  2330A      4.647367  
    2331A      4.650461  2332A      4.652219  2333A      4.653626  
    2334A      4.654080  2335A      4.655014  2336A      4.658632  
    2337A      4.663864  2338A      4.664667  2339A      4.667162  
    2340A      4.670790  2341A      4.674316  2342A      4.674527  
    2343A      4.676670  2344A      4.678807  2345A      4.681781  
    2346A      4.684713  2347A      4.687248  2348A      4.689751  
    2349A      4.691683  2350A      4.696777  2351A      4.698571  
    2352A      4.701237  2353A      4.703476  2354A      4.706078  
    2355A      4.714982  2356A      4.718733  2357A      4.718974  
    2358A      4.724227  2359A      4.725661  2360A      4.730361  
    2361A      4.731923  2362A      4.736964  2363A      4.737729  
    2364A      4.739423  2365A      4.740410  2366A      4.742619  
    2367A      4.745340  2368A      4.749108  2369A      4.750750  
    2370A      4.751297  2371A      4.755023  2372A      4.757299  
    2373A      4.761298  2374A      4.765308  2375A      4.766055  
    2376A      4.770382  2377A      4.771882  2378A      4.777290  
    2379A      4.779064  2380A      4.781736  2381A      4.784095  
    2382A      4.784612  2383A      4.787481  2384A      4.791501  
    2385A      4.795149  2386A      4.800397  2387A      4.803977  
    2388A      4.804379  2389A      4.808982  2390A      4.810846  
    2391A      4.816596  2392A      4.818135  2393A      4.822735  
    2394A      4.826319  2395A      4.827240  2396A      4.829823  
    2397A      4.832456  2398A      4.835756  2399A      4.836025  
    2400A      4.837511  2401A      4.844507  2402A      4.847459  
    2403A      4.852845  2404A      4.856295  2405A      4.860279  
    2406A      4.865845  2407A      4.866786  2408A      4.869893  
    2409A      4.875572  2410A      4.876557  2411A      4.878335  
    2412A      4.881930  2413A      4.886095  2414A      4.890040  
    2415A      4.891244  2416A      4.896617  2417A      4.900911  
    2418A      4.903116  2419A      4.909754  2420A      4.913128  
    2421A      4.917717  2422A      4.918935  2423A      4.925109  
    2424A      4.927354  2425A      4.931089  2426A      4.934324  
    2427A      4.936619  2428A      4.938033  2429A      4.939257  
    2430A      4.943697  2431A      4.946143  2432A      4.949097  
    2433A      4.951202  2434A      4.960810  2435A      4.962426  
    2436A      4.964423  2437A      4.967503  2438A      4.972922  
    2439A      4.975074  2440A      4.982522  2441A      4.984723  
    2442A      4.986582  2443A      4.991404  2444A      4.991884  
    2445A      4.997559  2446A      5.000168  2447A      5.003189  
    2448A      5.007970  2449A      5.008440  2450A      5.012199  
    2451A      5.016246  2452A      5.019957  2453A      5.022229  
    2454A      5.023832  2455A      5.028950  2456A      5.033118  
    2457A      5.035536  2458A      5.036660  2459A      5.041857  
    2460A      5.047210  2461A      5.054384  2462A      5.055755  
    2463A      5.056622  2464A      5.059294  2465A      5.065640  
    2466A      5.068652  2467A      5.073797  2468A      5.074423  
    2469A      5.078698  2470A      5.082015  2471A      5.084152  
    2472A      5.087453  2473A      5.094078  2474A      5.096953  
    2475A      5.106551  2476A      5.109689  2477A      5.110990  
    2478A      5.114489  2479A      5.117574  2480A      5.121656  
    2481A      5.127700  2482A      5.130681  2483A      5.136738  
    2484A      5.147731  2485A      5.149460  2486A      5.150719  
    2487A      5.153588  2488A      5.156556  2489A      5.169792  
    2490A      5.172037  2491A      5.174146  2492A      5.180407  
    2493A      5.182579  2494A      5.189100  2495A      5.190898  
    2496A      5.192256  2497A      5.200074  2498A      5.205110  
    2499A      5.206887  2500A      5.209315  2501A      5.218304  
    2502A      5.222551  2503A      5.223765  2504A      5.229972  
    2505A      5.230776  2506A      5.237792  2507A      5.242430  
    2508A      5.246318  2509A      5.249148  2510A      5.252874  
    2511A      5.254238  2512A      5.262722  2513A      5.270859  
    2514A      5.273378  2515A      5.273726  2516A      5.279073  
    2517A      5.282762  2518A      5.286488  2519A      5.291132  
    2520A      5.294700  2521A      5.296866  2522A      5.300461  
    2523A      5.301667  2524A      5.312182  2525A      5.313390  
    2526A      5.320122  2527A      5.321927  2528A      5.325136  
    2529A      5.335388  2530A      5.342530  2531A      5.349241  
    2532A      5.355121  2533A      5.360676  2534A      5.362914  
    2535A      5.370318  2536A      5.376778  2537A      5.379433  
    2538A      5.391222  2539A      5.396283  2540A      5.400925  
    2541A      5.401790  2542A      5.404487  2543A      5.411071  
    2544A      5.422442  2545A      5.423835  2546A      5.426416  
    2547A      5.431949  2548A      5.433971  2549A      5.445453  
    2550A      5.446651  2551A      5.451556  2552A      5.454962  
    2553A      5.458446  2554A      5.464668  2555A      5.465765  
    2556A      5.470706  2557A      5.481794  2558A      5.496455  
    2559A      5.500575  2560A      5.511141  2561A      5.518064  
    2562A      5.520191  2563A      5.529611  2564A      5.532662  
    2565A      5.538082  2566A      5.541597  2567A      5.546869  
    2568A      5.547896  2569A      5.551692  2570A      5.563419  
    2571A      5.574167  2572A      5.580977  2573A      5.588778  
    2574A      5.590146  2575A      5.592256  2576A      5.596518  
    2577A      5.601648  2578A      5.611039  2579A      5.613081  
    2580A      5.620238  2581A      5.622196  2582A      5.627604  
    2583A      5.629028  2584A      5.632163  2585A      5.636300  
    2586A      5.645979  2587A      5.647504  2588A      5.649427  
    2589A      5.658297  2590A      5.660128  2591A      5.670656  
    2592A      5.674547  2593A      5.684640  2594A      5.689235  
    2595A      5.690455  2596A      5.694206  2597A      5.703681  
    2598A      5.713740  2599A      5.714796  2600A      5.715214  
    2601A      5.726056  2602A      5.728843  2603A      5.733013  
    2604A      5.738697  2605A      5.744776  2606A      5.758755  
    2607A      5.764360  2608A      5.765482  2609A      5.766852  
    2610A      5.776664  2611A      5.784063  2612A      5.786808  
    2613A      5.787603  2614A      5.791736  2615A      5.806802  
    2616A      5.808538  2617A      5.812496  2618A      5.818252  
    2619A      5.827452  2620A      5.832222  2621A      5.836319  
    2622A      5.838113  2623A      5.839791  2624A      5.844751  
    2625A      5.851297  2626A      5.863725  2627A      5.866441  
    2628A      5.867207  2629A      5.876269  2630A      5.882397  
    2631A      5.888357  2632A      5.895646  2633A      5.903088  
    2634A      5.905828  2635A      5.919924  2636A      5.928554  
    2637A      5.930583  2638A      5.935517  2639A      5.941973  
    2640A      5.947138  2641A      5.952465  2642A      5.970647  
    2643A      5.978976  2644A      5.986970  2645A      5.989208  
    2646A      5.989765  2647A      5.996918  2648A      6.005452  
    2649A      6.012336  2650A      6.013860  2651A      6.022859  
    2652A      6.027490  2653A      6.042670  2654A      6.046836  
    2655A      6.048975  2656A      6.066129  2657A      6.071565  
    2658A      6.085084  2659A      6.096209  2660A      6.102155  
    2661A      6.108751  2662A      6.124603  2663A      6.127294  
    2664A      6.136163  2665A      6.152295  2666A      6.152450  
    2667A      6.161188  2668A      6.179269  2669A      6.181022  
    2670A      6.198383  2671A      6.205397  2672A      6.217436  
    2673A      6.225556  2674A      6.238453  2675A      6.246768  
    2676A      6.256165  2677A      6.272094  2678A      6.294204  
    2679A      6.296373  2680A      6.302080  2681A      6.309782  
    2682A      6.325622  2683A      6.328279  2684A      6.342303  
    2685A      6.346246  2686A      6.350408  2687A      6.356117  
    2688A      6.361126  2689A      6.370469  2690A      6.383037  
    2691A      6.384696  2692A      6.390299  2693A      6.392363  
    2694A      6.408799  2695A      6.416277  2696A      6.418211  
    2697A      6.418591  2698A      6.421806  2699A      6.428359  
    2700A      6.438323  2701A      6.448402  2702A      6.449756  
    2703A      6.465496  2704A      6.473289  2705A      6.475167  
    2706A      6.476144  2707A      6.477545  2708A      6.493628  
    2709A      6.503697  2710A      6.507308  2711A      6.511024  
    2712A      6.513084  2713A      6.525691  2714A      6.531882  
    2715A      6.533635  2716A      6.542708  2717A      6.547964  
    2718A      6.554259  2719A      6.558787  2720A      6.564800  
    2721A      6.572113  2722A      6.575972  2723A      6.582098  
    2724A      6.588570  2725A      6.592980  2726A      6.593257  
    2727A      6.607282  2728A      6.609534  2729A      6.609868  
    2730A      6.622780  2731A      6.625774  2732A      6.627214  
    2733A      6.629338  2734A      6.640055  2735A      6.649433  
    2736A      6.657598  2737A      6.665911  2738A      6.670137  
    2739A      6.675235  2740A      6.679360  2741A      6.684757  
    2742A      6.685239  2743A      6.687503  2744A      6.694300  
    2745A      6.696768  2746A      6.707125  2747A      6.711247  
    2748A      6.722398  2749A      6.726084  2750A      6.728213  
    2751A      6.742941  2752A      6.745002  2753A      6.750749  
    2754A      6.752268  2755A      6.764413  2756A      6.766695  
    2757A      6.778133  2758A      6.778466  2759A      6.781641  
    2760A      6.783056  2761A      6.786528  2762A      6.791576  
    2763A      6.795452  2764A      6.802554  2765A      6.804632  
    2766A      6.804912  2767A      6.817372  2768A      6.820250  
    2769A      6.828723  2770A      6.832396  2771A      6.838058  
    2772A      6.845642  2773A      6.850722  2774A      6.854889  
    2775A      6.862052  2776A      6.869259  2777A      6.869305  
    2778A      6.874685  2779A      6.877674  2780A      6.886228  
    2781A      6.891738  2782A      6.894040  2783A      6.896196  
    2784A      6.898106  2785A      6.901979  2786A      6.909675  
    2787A      6.912324  2788A      6.915773  2789A      6.918792  
    2790A      6.921589  2791A      6.926160  2792A      6.931107  
    2793A      6.931232  2794A      6.939629  2795A      6.942619  
    2796A      6.947050  2797A      6.952054  2798A      6.953810  
    2799A      6.960048  2800A      6.961274  2801A      6.963004  
    2802A      6.972437  2803A      6.973207  2804A      6.975872  
    2805A      6.977950  2806A      6.985014  2807A      6.992646  
    2808A      6.993099  2809A      6.994177  2810A      6.995728  
    2811A      6.996302  2812A      7.001301  2813A      7.003297  
    2814A      7.011412  2815A      7.013262  2816A      7.019934  
    2817A      7.020360  2818A      7.026527  2819A      7.030577  
    2820A      7.035375  2821A      7.036608  2822A      7.040222  
    2823A      7.043740  2824A      7.050194  2825A      7.051440  
    2826A      7.052094  2827A      7.056623  2828A      7.060977  
    2829A      7.065361  2830A      7.068670  2831A      7.069129  
    2832A      7.070874  2833A      7.082961  2834A      7.088490  
    2835A      7.092701  2836A      7.095047  2837A      7.096873  
    2838A      7.097432  2839A      7.098580  2840A      7.100852  
    2841A      7.104316  2842A      7.113281  2843A      7.114848  
    2844A      7.120846  2845A      7.121562  2846A      7.132267  
    2847A      7.132349  2848A      7.136036  2849A      7.138175  
    2850A      7.145631  2851A      7.148687  2852A      7.150188  
    2853A      7.150657  2854A      7.156825  2855A      7.161872  
    2856A      7.167775  2857A      7.173506  2858A      7.176455  
    2859A      7.178360  2860A      7.181046  2861A      7.186253  
    2862A      7.196184  2863A      7.198777  2864A      7.200728  
    2865A      7.202792  2866A      7.207557  2867A      7.209445  
    2868A      7.214979  2869A      7.218760  2870A      7.221313  
    2871A      7.223998  2872A      7.224684  2873A      7.225230  
[...]
    3168A      8.624683  3169A      8.630060  3170A      8.639843  
    3171A      8.645874  3172A      8.648189  3173A      8.652288  
    3174A      8.662830  3175A      8.666511  3176A      8.666634  
    3177A      8.674659  3178A      8.677550  3179A      8.678246  
    3180A      8.680742  3181A      8.685951  3182A      8.690699  
    3183A      8.696653  3184A      8.697566  3185A      8.699951  
    3186A      8.710132  3187A      8.710279  3188A      8.713806  
    3189A      8.719471  3190A      8.720817  3191A      8.723194  
    3192A      8.729471  3193A      8.735510  3194A      8.743240  
    3195A      8.744178  3196A      8.747846  3197A      8.754817  
    3198A      8.766658  3199A      8.767887  3200A      8.769301  
    3201A      8.771509  3202A      8.776099  3203A      8.782196  
    3204A      8.782845  3205A      8.787235  3206A      8.792463  
    3207A      8.797950  3208A      8.805464  3209A      8.806709  
    3210A      8.811979  3211A      8.815659  3212A      8.819199  
    3213A      8.823993  3214A      8.826755  3215A      8.831525  
    3216A      8.834150  3217A      8.836818  3218A      8.841887  
    3219A      8.844964  3220A      8.857856  3221A      8.859873  
    3222A      8.863379  3223A      8.867848  3224A      8.868211  
    3225A      8.873547  3226A      8.882576  3227A      8.884362  
    3228A      8.892088  3229A      8.899494  3230A      8.905531  
    3231A      8.915260  3232A      8.915992  3233A      8.917727  
    3234A      8.924268  3235A      8.924852  3236A      8.928989  
    3237A      8.937684  3238A      8.945878  3239A      8.947927  
    3240A      8.956295  3241A      8.957093  3242A      8.958449  
    3243A      8.966347  3244A      8.979094  3245A      8.987737  
    3246A      8.988652  3247A      8.989721  3248A      8.993871  
    3249A      8.998761  3250A      9.002668  3251A      9.007874  
    3252A      9.008877  3253A      9.011532  3254A      9.012695  
    3255A      9.023475  3256A      9.031987  3257A      9.033908  
    3258A      9.039996  3259A      9.042428  3260A      9.050171  
    3261A      9.052007  3262A      9.054482  3263A      9.067939  
    3264A      9.068742  3265A      9.073271  3266A      9.078148  
    3267A      9.083282  3268A      9.087634  3269A      9.088995  
    3270A      9.093777  3271A      9.095305  3272A      9.107227  
    3273A      9.114866  3274A      9.123306  3275A      9.126638  
    3276A      9.135519  3277A      9.136224  3278A      9.138415  
    3279A      9.142590  3280A      9.146042  3281A      9.148964  
    3282A      9.156352  3283A      9.159835  3284A      9.179439  
    3285A      9.187158  3286A      9.197091  3287A      9.202248  
    3288A      9.203240  3289A      9.206828  3290A      9.210045  
    3291A      9.215547  3292A      9.220819  3293A      9.225213  
    3294A      9.228842  3295A      9.232834  3296A      9.239748  
    3297A      9.242840  3298A      9.246385  3299A      9.256979  
    3300A      9.260319  3301A      9.263558  3302A      9.271611  
    3303A      9.276860  3304A      9.287507  3305A      9.291819  
    3306A      9.292366  3307A      9.297335  3308A      9.300471  
    3309A      9.307876  3310A      9.314494  3311A      9.318411  
    3312A      9.323871  3313A      9.330067  3314A      9.336343  
    3315A      9.341698  3316A      9.343606  3317A      9.348625  
    3318A      9.351676  3319A      9.367023  3320A      9.370230  
    3321A      9.385503  3322A      9.391010  3323A      9.402677  
    3324A      9.404795  3325A      9.405386  3326A      9.409208  
    3327A      9.410784  3328A      9.421854  3329A      9.424212  
    3330A      9.430141  3331A      9.433182  3332A      9.440174  
    3333A      9.442662  3334A      9.446875  3335A      9.450377  
    3336A      9.457210  3337A      9.460634  3338A      9.465770  
    3339A      9.469253  3340A      9.472801  3341A      9.483424  
    3342A      9.489486  3343A      9.492036  3344A      9.499976  
    3345A      9.505733  3346A      9.507223  3347A      9.512961  
    3348A      9.515153  3349A      9.522806  3350A      9.530092  
    3351A      9.538489  3352A      9.544831  3353A      9.547047  
    3354A      9.549852  3355A      9.552221  3356A      9.557902  
    3357A      9.558663  3358A      9.560294  3359A      9.568651  
    3360A      9.583634  3361A      9.592960  3362A      9.596098  
    3363A      9.599032  3364A      9.601600  3365A      9.610854  
    3366A      9.619831  3367A      9.620165  3368A      9.621586  
    3369A      9.628170  3370A      9.633693  3371A      9.641518  
    3372A      9.646939  3373A      9.651430  3374A      9.655003  
    3375A      9.661689  3376A      9.674252  3377A      9.674802  
    3378A      9.683425  3379A      9.687168  3380A      9.695325  
    3381A      9.704979  3382A      9.709058  3383A      9.724237  
    3384A      9.725490  3385A      9.727891  3386A      9.729454  
    3387A      9.738275  3388A      9.740725  3389A      9.744837  
    3390A      9.746892  3391A      9.755094  3392A      9.763798  
    3393A      9.765280  3394A      9.766840  3395A      9.767838  
    3396A      9.776163  3397A      9.784585  3398A      9.791593  
    3399A      9.794357  3400A      9.796317  3401A      9.802106  
    3402A      9.810927  3403A      9.812311  3404A      9.816792  
    3405A      9.819387  3406A      9.820661  3407A      9.826499  
    3408A      9.827919  3409A      9.830140  3410A      9.843078  
    3411A      9.854149  3412A      9.854852  3413A      9.859815  
    3414A      9.864135  3415A      9.866807  3416A      9.871799  
    3417A      9.877453  3418A      9.886559  3419A      9.894263  
    3420A      9.898637  3421A      9.901281  3422A      9.904574  
    3423A      9.908013  3424A      9.908542  3425A      9.915842  
    3426A      9.917312  3427A      9.922441  3428A      9.923113  
    3429A      9.925977  3430A      9.926633  3431A      9.935189  
    3432A      9.939717  3433A      9.945454  3434A      9.950587  
    3435A      9.962774  3436A      9.965510  3437A      9.971317  
    3438A      9.975693  3439A      9.993377  3440A     10.002325  
    3441A     10.007898  3442A     10.013251  3443A     10.026459  
    3444A     10.038368  3445A     10.044340  3446A     10.047012  
    3447A     10.049004  3448A     10.049959  3449A     10.062529  
    3450A     10.065267  3451A     10.068593  3452A     10.073256  
    3453A     10.081322  3454A     10.090946  3455A     10.095541  
    3456A     10.109948  3457A     10.113880  3458A     10.120144  
    3459A     10.135759  3460A     10.138278  3461A     10.140224  
    3462A     10.147372  3463A     10.149922  3464A     10.150397  
    3465A     10.154303  3466A     10.161265  3467A     10.170538  
    3468A     10.173797  3469A     10.176110  3470A     10.180309  
    3471A     10.183719  3472A     10.189242  3473A     10.200774  
    3474A     10.201154  3475A     10.205065  3476A     10.213441  
    3477A     10.214681  3478A     10.221255  3479A     10.223036  
    3480A     10.229554  3481A     10.235221  3482A     10.237353  
    3483A     10.249376  3484A     10.253622  3485A     10.264819  
    3486A     10.267175  3487A     10.272119  3488A     10.273214  
    3489A     10.274323  3490A     10.282957  3491A     10.290372  
    3492A     10.291242  3493A     10.297102  3494A     10.299913  
    3495A     10.300822  3496A     10.301733  3497A     10.308013  
    3498A     10.313672  3499A     10.317128  3500A     10.318081  
    3501A     10.330600  3502A     10.332284  3503A     10.339418  
    3504A     10.341252  3505A     10.344907  3506A     10.352069  
    3507A     10.360023  3508A     10.367428  3509A     10.368172  
    3510A     10.370396  3511A     10.377260  3512A     10.381304  
    3513A     10.385947  3514A     10.399989  3515A     10.408730  
    3516A     10.417533  3517A     10.421177  3518A     10.424620  
    3519A     10.427390  3520A     10.435320  3521A     10.443661  
    3522A     10.446997  3523A     10.454766  3524A     10.455240  
    3525A     10.459856  3526A     10.464002  3527A     10.467852  
    3528A     10.477404  3529A     10.480519  3530A     10.493516  
    3531A     10.503116  3532A     10.515422  3533A     10.526777  
    3534A     10.538077  3535A     10.538265  3536A     10.549187  
    3537A     10.571326  3538A     10.587525  3539A     10.589113  
    3540A     10.592980  3541A     10.602477  3542A     10.607818  
    3543A     10.611922  3544A     10.624406  3545A     10.653522  
    3546A     10.654068  3547A     10.663758  3548A     10.674634  
    3549A     10.676827  3550A     10.700149  3551A     10.709284  
    3552A     10.712347  3553A     10.739189  3554A     10.740098  
    3555A     10.755694  3556A     10.760077  3557A     10.765071  
    3558A     10.769681  3559A     10.784052  3560A     10.792444  
    3561A     10.797685  3562A     10.815053  3563A     10.819111  
    3564A     10.821882  3565A     10.824974  3566A     10.836154  
    3567A     10.839785  3568A     10.841646  3569A     10.849869  
    3570A     10.853786  3571A     10.863942  3572A     10.876241  
    3573A     10.878758  3574A     10.883558  3575A     10.886774  
    3576A     10.887606  3577A     10.894793  3578A     10.897432  
    3579A     10.901174  3580A     10.909323  3581A     10.911311  
    3582A     10.920694  3583A     10.924795  3584A     10.951967  
    3585A     10.956505  3586A     10.961592  3587A     10.968299  
    3588A     10.982256  3589A     10.995472  3590A     10.996909  
    3591A     11.005922  3592A     11.011773  3593A     11.012177  
    3594A     11.017228  3595A     11.021657  3596A     11.029617  
    3597A     11.039861  3598A     11.047606  3599A     11.054877  
    3600A     11.056393  3601A     11.067967  3602A     11.069970  
    3603A     11.076289  3604A     11.081812  3605A     11.085621  
    3606A     11.094549  3607A     11.103267  3608A     11.111433  
    3609A     11.111762  3610A     11.111787  3611A     11.124364  
    3612A     11.133126  3613A     11.135048  3614A     11.143518  
    3615A     11.152050  3616A     11.153934  3617A     11.163957  
    3618A     11.165650  3619A     11.169028  3620A     11.175558  
    3621A     11.176898  3622A     11.181006  3623A     11.198327  
    3624A     11.201091  3625A     11.213848  3626A     11.218285  
    3627A     11.218816  3628A     11.222218  3629A     11.227152  
    3630A     11.232846  3631A     11.245449  3632A     11.250338  
    3633A     11.250994  3634A     11.253177  3635A     11.258185  
    3636A     11.260442  3637A     11.270549  3638A     11.276352  
    3639A     11.282178  3640A     11.288201  3641A     11.295579  
    3642A     11.319087  3643A     11.322977  3644A     11.325943  
    3645A     11.330273  3646A     11.352840  3647A     11.358310  
    3648A     11.360251  3649A     11.366731  3650A     11.376780  
    3651A     11.388470  3652A     11.394805  3653A     11.396458  
    3654A     11.408552  3655A     11.410776  3656A     11.420360  
    3657A     11.424359  3658A     11.432646  3659A     11.446509  
    3660A     11.450027  3661A     11.457145  3662A     11.458636  
    3663A     11.465636  3664A     11.470975  3665A     11.473742  
    3666A     11.500073  3667A     11.503217  3668A     11.519105  
    3669A     11.527103  3670A     11.527779  3671A     11.545848  
    3672A     11.547116  3673A     11.550289  3674A     11.551063  
    3675A     11.570174  3676A     11.576110  3677A     11.582025  
    3678A     11.598384  3679A     11.602649  3680A     11.607229  
    3681A     11.611275  3682A     11.614938  3683A     11.620877  
    3684A     11.628010  3685A     11.636047  3686A     11.641575  
    3687A     11.646443  3688A     11.655385  3689A     11.657306  
    3690A     11.662901  3691A     11.671084  3692A     11.680031  
    3693A     11.683957  3694A     11.691654  3695A     11.699067  
    3696A     11.711392  3697A     11.715658  3698A     11.716579  
    3699A     11.720686  3700A     11.746019  3701A     11.755428  
    3702A     11.764938  3703A     11.781454  3704A     11.786114  
    3705A     11.789563  3706A     11.792120  3707A     11.796292  
    3708A     11.799971  3709A     11.808078  3710A     11.819331  
    3711A     11.825063  3712A     11.848834  3713A     11.864857  
    3714A     11.874412  3715A     11.891258  3716A     11.901434  
    3717A     11.904287  3718A     11.916892  3719A     11.930809  
    3720A     11.932679  3721A     11.935596  3722A     11.937915  
    3723A     11.951419  3724A     11.957790  3725A     11.958604  
    3726A     11.966058  3727A     11.972935  3728A     11.981367  
    3729A     12.000652  3730A     12.009382  3731A     12.013211  
    3732A     12.024335  3733A     12.043933  3734A     12.044232  
    3735A     12.045063  3736A     12.071853  3737A     12.083854  
    3738A     12.102566  3739A     12.113464  3740A     12.121218  
    3741A     12.165878  3742A     12.178092  3743A     12.178140  
    3744A     12.184246  3745A     12.186349  3746A     12.196605  
    3747A     12.198602  3748A     12.209676  3749A     12.227632  
    3750A     12.235393  3751A     12.236562  3752A     12.237908  
    3753A     12.246901  3754A     12.247805  3755A     12.253226  
    3756A     12.258260  3757A     12.267257  3758A     12.267510  
    3759A     12.272428  3760A     12.287168  3761A     12.293621  
    3762A     12.297273  3763A     12.316331  3764A     12.319011  
    3765A     12.320373  3766A     12.320744  3767A     12.337389  
    3768A     12.350008  3769A     12.351980  3770A     12.353660  
    3771A     12.364168  3772A     12.377925  3773A     12.385652  
    3774A     12.392038  3775A     12.401030  3776A     12.411807  
    3777A     12.419990  3778A     12.421809  3779A     12.437005  
    3780A     12.447421  3781A     12.450790  3782A     12.475537  
    3783A     12.485243  3784A     12.504687  3785A     12.531114  
    3786A     12.552656  3787A     12.564550  3788A     12.591752  
    3789A     12.602804  3790A     12.607398  3791A     12.617470  
    3792A     12.627855  3793A     12.676448  3794A     12.684260  
    3795A     12.689611  3796A     12.738139  3797A     12.749310  
    3798A     12.751175  3799A     12.761658  3800A     12.776937  
    3801A     12.780964  3802A     12.798519  3803A     12.806826  
    3804A     12.808380  3805A     12.821967  3806A     12.833535  
    3807A     12.843940  3808A     12.852717  3809A     12.863783  
    3810A     12.866509  3811A     12.872227  3812A     12.883449  
    3813A     12.892040  3814A     12.921231  3815A     12.933099  
    3816A     12.953190  3817A     12.971105  3818A     12.972480  
    3819A     12.973305  3820A     12.980678  3821A     12.994586  
    3822A     13.000106  3823A     13.012976  3824A     13.015470  
    3825A     13.037439  3826A     13.048006  3827A     13.052806  
    3828A     13.074991  3829A     13.079625  3830A     13.089022  
    3831A     13.093604  3832A     13.100968  3833A     13.102071  
    3834A     13.116886  3835A     13.130137  3836A     13.132255  
    3837A     13.133850  3838A     13.146844  3839A     13.164743  
    3840A     13.177432  3841A     13.200758  3842A     13.207278  
    3843A     13.209906  3844A     13.243806  3845A     13.244147  
    3846A     13.260783  3847A     13.282046  3848A     13.283852  
    3849A     13.311453  3850A     13.319082  3851A     13.351702  
    3852A     13.352434  3853A     13.353325  3854A     13.365061  
    3855A     13.375615  3856A     13.391185  3857A     13.398595  
    3858A     13.402741  3859A     13.418043  3860A     13.421411  
    3861A     13.431526  3862A     13.432720  3863A     13.440219  
    3864A     13.449540  3865A     13.461580  3866A     13.462535  
    3867A     13.467239  3868A     13.472526  3869A     13.489885  
    3870A     13.510701  3871A     13.515760  3872A     13.525165  
    3873A     13.539380  3874A     13.547661  3875A     13.553286  
    3876A     13.555321  3877A     13.558248  3878A     13.586186  
    3879A     13.604715  3880A     13.606879  3881A     13.611802  
    3882A     13.622531  3883A     13.658994  3884A     13.690620  
    3885A     13.694800  3886A     13.721743  3887A     13.756154  
    3888A     13.761235  3889A     13.770507  3890A     13.785732  
    3891A     13.813589  3892A     13.831706  3893A     13.874891  
    3894A     13.889014  3895A     13.910825  3896A     13.915093  
    3897A     13.952475  3898A     13.965708  3899A     13.991590  
    3900A     14.049740  3901A     14.055889  3902A     14.071640  
    3903A     14.072981  3904A     14.083898  3905A     14.122251  
    3906A     14.152425  3907A     14.155635  3908A     14.194449  
    3909A     14.212705  3910A     14.271300  3911A     14.350929  
    3912A     14.388228  3913A     14.404036  3914A     14.523958  
    3915A     14.541044  3916A     14.541633  3917A     14.590791  
    3918A     14.627999  3919A     14.637039  3920A     14.651689  
    3921A     14.664452  3922A     14.668404  3923A     14.675378  
    3924A     14.701592  3925A     14.707223  3926A     14.798984  
    3927A     14.877824  3928A     14.900199  3929A     14.918916  
    3930A     15.023019  3931A     15.072464  3932A     15.077874  
    3933A     15.094467  3934A     15.127833  3935A     15.129984  
    3936A     15.169205  3937A     15.181565  3938A     15.205188  
    3939A     15.209168  3940A     15.252882  3941A     15.288217  
    3942A     15.371438  3943A     15.402417  3944A     15.417043  
    3945A     15.447089  3946A     15.449249  3947A     15.527235  
    3948A     15.557383  3949A     15.568939  3950A     15.596743  
    3951A     15.599899  3952A     17.405797  3953A     17.542893  
    3954A     17.688974  3955A     26.594768  3956A     26.790730  
    3957A     26.883488  3958A     27.006145  3959A     27.026660  
    3960A     27.258419  3961A     27.417618  3962A     27.450136  
    3963A     28.078796  3964A     28.096065  3965A     28.156054  
    3966A     28.405612  3967A     28.462415  3968A     28.480919  
    3969A     28.514984  3970A     28.704162  3971A     35.495123  
    3972A     36.095681  3973A     36.180764  3974A     36.360773  
    3975A     36.414639  3976A     43.965437  3977A     44.446082  
    3978A     44.451155  3979A     44.652510  3980A     44.662499  
    3981A     44.713461  3982A     45.039453  3983A     45.120784  
    3984A     45.966992  3985A     46.325624  3986A     46.618898  

    Final Occupation by Irrep:
              A 
    DOCC [   125 ]

  Energy converged.

  @DF-RHF Final Energy: -1720.26167367838480

   => Energetics <=

    Nuclear Repulsion Energy =           2982.7484935527136258
    One-Electron Energy =               -8294.4461884248103161
    Two-Electron Energy =                3591.4360211937118947
    Total Energy =                      -1720.2616736783847955



Properties will be evaluated at   0.000000,   0.000000,   0.000000 Bohr

Properties computed using the SCF density matrix

  Nuclear Dipole Moment: (a.u.)
     X:   -12.8500      Y:     5.9243      Z:     4.6194

  Electronic Dipole Moment: (a.u.)
     X:    12.8463      Y:    -6.0719      Z:    -2.6451

  Dipole Moment: (a.u.)
     X:    -0.0038      Y:    -0.1475      Z:     1.9743     Total:     1.9798

  Dipole Moment: (Debye)
     X:    -0.0095      Y:    -0.3750      Z:     5.0181     Total:     5.0321


*** tstop() called on hex15 at Thu Mar  8 10:47:30 2018
Module time:
	user time   =   30205.88 seconds =     503.43 minutes
	system time =    4015.01 seconds =      66.92 minutes
	total time  =      30655 seconds =     510.92 minutes
Total time:
	user time   =   30205.88 seconds =     503.43 minutes
	system time =    4015.01 seconds =      66.92 minutes
	total time  =      30655 seconds =     510.92 minutes

*** Psi4 exiting successfully. Buy a developer a beer!
