
    -----------------------------------------------------------------------
          Psi4: An Open-Source Ab Initio Electronic Structure Package
                               Psi4 1.2a1.dev875 

                         Git: Rev {symm_JK} 0ea9481 dirty


    R. M. Parrish, L. A. Burns, D. G. A. Smith, A. C. Simmonett,
    A. E. DePrince III, E. G. Hohenstein, U. Bozkaya, A. Yu. Sokolov,
    R. Di Remigio, R. M. Richard, J. F. Gonthier, A. M. James,
    H. R. McAlexander, A. Kumar, M. Saitow, X. Wang, B. P. Pritchard,
    P. Verma, H. F. Schaefer III, K. Patkowski, R. A. King, E. F. Valeev,
    F. A. Evangelista, J. M. Turney, T. D. Crawford, and C. D. Sherrill,
    J. Chem. Theory Comput. 13(7) pp 3185--3197 (2017).
    (doi: 10.1021/acs.jctc.7b00174)

    -----------------------------------------------------------------------


    Psi4 started on: Thursday, 01 March 2018 05:27PM

    Process ID:  28801
    PSIDATADIR: /theoryfs2/ds/schieber/Gits/mspsi4/objdir3/stage/usr/local/psi4/share/psi4
    Memory:     500.0 MiB
    Threads:    6
    
  ==> Input File <==

--------------------------------------------------------------------------
memory 60 Gb

molecule protein_30 {
0 1
 N   18.626  30.444   6.627
 C   17.853  29.516   5.837
 C   16.945  30.292   4.886
 O   15.843  30.678   5.237
 C   17.047  28.642   6.811
 C   16.316  27.513   6.146
 O   16.236  27.458   4.905
 O   15.762  26.696   6.882
 N   17.407  27.054  -1.437
 C   17.227  26.751  -0.026
 C   18.555  26.446   0.653
 O   19.003  25.309   0.692
 C   16.258  25.572   0.084
 C   15.759  25.336   1.493
 O   16.399  25.780   2.453
 O   14.731  24.675   1.645
 H   18.180  30.990   7.295
 H   18.510  28.835   5.249
 H   16.336  29.276   7.377
 H   17.778  28.186   7.516
 H   15.845  26.702   7.843
 H   17.860  26.421  -2.023
 H   16.724  27.595   0.500
 H   16.724  24.663  -0.337
 H   15.363  25.845  -0.519
 H   16.737  25.171   3.109
 H   19.646  30.419   6.619
 H   17.295  30.415   3.850
 H   16.947  27.858  -1.864
 H   19.060  27.284   1.155
}

set {
basis aug-cc-pvdz
scf_type df
guess sad
DF_SCF_TYPE DFJK
}

energy('HF')
--------------------------------------------------------------------------

  Memory set to  55.879 GiB by Python driver.

*** tstart() called on hex15
*** at Thu Mar  1 17:27:44 2018

   => Loading Basis Set <=

    Name: AUG-CC-PVDZ
    Role: ORBITAL
    Keyword: BASIS
    atoms 1, 9                   entry N          line   214 file /theoryfs2/ds/schieber/Gits/mspsi4/objdir3/stage/usr/local/psi4/share/psi4/basis/aug-cc-pvdz.gbs 
    atoms 2-3, 5-6, 10-11, 13-14 entry C          line   178 file /theoryfs2/ds/schieber/Gits/mspsi4/objdir3/stage/usr/local/psi4/share/psi4/basis/aug-cc-pvdz.gbs 
    atoms 4, 7-8, 12, 15-16      entry O          line   250 file /theoryfs2/ds/schieber/Gits/mspsi4/objdir3/stage/usr/local/psi4/share/psi4/basis/aug-cc-pvdz.gbs 
    atoms 17-30                  entry H          line    36 file /theoryfs2/ds/schieber/Gits/mspsi4/objdir3/stage/usr/local/psi4/share/psi4/basis/aug-cc-pvdz.gbs 


         ---------------------------------------------------------
                                   SCF
            by Justin Turney, Rob Parrish, Andy Simmonett
                             and Daniel Smith
                              RHF Reference
                        6 Threads,  57220 MiB Core
         ---------------------------------------------------------

  ==> Geometry <==

    Molecular point group: c1
    Full point group: C1

    Geometry (in Angstrom), charge = 0, multiplicity = 1:

       Center              X                  Y                   Z               Mass       
    ------------   -----------------  -----------------  -----------------  -----------------
           N          1.759981620253     3.071942570653     3.302034477710    14.003074004780
           C          0.986981620253     2.143942570653     2.512034477710    12.000000000000
           C          0.078981620253     2.919942570653     1.561034477710    12.000000000000
           O         -1.023018379747     3.305942570653     1.912034477710    15.994914619560
           C          0.180981620253     1.269942570653     3.486034477710    12.000000000000
           C         -0.550018379747     0.140942570653     2.821034477710    12.000000000000
           O         -0.630018379747     0.085942570653     1.580034477710    15.994914619560
           O         -1.104018379747    -0.676057429347     3.557034477710    15.994914619560
           N          0.540981620253    -0.318057429347    -4.761965522290    14.003074004780
           C          0.360981620253    -0.621057429347    -3.350965522290    12.000000000000
           C          1.688981620253    -0.926057429347    -2.671965522290    12.000000000000
           O          2.136981620253    -2.063057429347    -2.632965522290    15.994914619560
           C         -0.608018379747    -1.800057429347    -3.240965522290    12.000000000000
           C         -1.107018379747    -2.036057429347    -1.831965522290    12.000000000000
           O         -0.467018379747    -1.592057429347    -0.871965522290    15.994914619560
           O         -2.135018379747    -2.697057429347    -1.679965522290    15.994914619560
           H          1.313981620253     3.617942570653     3.970034477710     1.007825032070
           H          1.643981620253     1.462942570653     1.924034477710     1.007825032070
           H         -0.530018379747     1.903942570653     4.052034477710     1.007825032070
           H          0.911981620253     0.813942570653     4.191034477710     1.007825032070
           H         -1.021018379747    -0.670057429347     4.518034477710     1.007825032070
           H          0.993981620253    -0.951057429347    -5.347965522290     1.007825032070
           H         -0.142018379747     0.222942570653    -2.824965522290     1.007825032070
           H         -0.142018379747    -2.709057429347    -3.661965522290     1.007825032070
           H         -1.503018379747    -1.527057429347    -3.843965522290     1.007825032070
           H         -0.129018379747    -2.201057429347    -0.215965522290     1.007825032070
           H          2.779981620253     3.046942570653     3.294034477710     1.007825032070
           H          0.428981620253     3.042942570653     0.525034477710     1.007825032070
           H          0.080981620253     0.485942570653    -5.188965522290     1.007825032070
           H          2.193981620253    -0.088057429347    -2.169965522290     1.007825032070

  Running in c1 symmetry.

  Rotational constants: A =      0.02246  B =      0.00667  C =      0.00592 [cm^-1]
  Rotational constants: A =    673.47508  B =    199.82875  C =    177.40117 [MHz]
  Nuclear repulsion = 1089.601628930780862

  Charge       = 0
  Multiplicity = 1
  Electrons    = 124
  Nalpha       = 62
  Nbeta        = 62

  ==> Algorithm <==

  SCF Algorithm Type is DF.
  DIIS enabled.
  MOM disabled.
  Fractional occupation disabled.
  Guess Type is SAD.
  Energy threshold   = 1.00e-06
  Density threshold  = 1.00e-06
  Integral threshold = 0.00e+00

  ==> Primary Basis <==

  Basis Set: AUG-CC-PVDZ
    Blend: AUG-CC-PVDZ
    Number of shells: 214
    Number of basis function: 494
    Number of Cartesian functions: 526
    Spherical Harmonics?: true
    Max angular momentum: 2

   => Loading Basis Set <=

    Name: (AUG-CC-PVDZ AUX)
    Role: JKFIT
    Keyword: DF_BASIS_SCF
    atoms 1, 9                   entry N          line   212 file /theoryfs2/ds/schieber/Gits/mspsi4/objdir3/stage/usr/local/psi4/share/psi4/basis/aug-cc-pvdz-jkfit.gbs 
    atoms 2-3, 5-6, 10-11, 13-14 entry C          line   154 file /theoryfs2/ds/schieber/Gits/mspsi4/objdir3/stage/usr/local/psi4/share/psi4/basis/aug-cc-pvdz-jkfit.gbs 
    atoms 4, 7-8, 12, 15-16      entry O          line   270 file /theoryfs2/ds/schieber/Gits/mspsi4/objdir3/stage/usr/local/psi4/share/psi4/basis/aug-cc-pvdz-jkfit.gbs 
    atoms 17-30                  entry H          line    70 file /theoryfs2/ds/schieber/Gits/mspsi4/objdir3/stage/usr/local/psi4/share/psi4/basis/aug-cc-pvdz-jkfit.gbs 

  ==> Pre-Iterations <==

   -------------------------------------------------------
    Irrep   Nso     Nmo     Nalpha   Nbeta   Ndocc  Nsocc
   -------------------------------------------------------
     A        494     494       0       0       0       0
   -------------------------------------------------------
    Total     494     494      62      62      62       0
   -------------------------------------------------------

  ==> Integral Setup <==

  ==> DFJK: Density-Fitted J/K Matrices <==

    J tasked:                  Yes
    K tasked:                  Yes
    wK tasked:                  No
    OpenMP threads:              6
    Integrals threads:           6
    Memory (MB):             42915
    Algorithm:                Core
    Integral Cache:           NONE
    Schwarz Cutoff:          1E-12
    Fitting Condition:       1E-12

   => Auxiliary Basis Set <=

  Basis Set: (AUG-CC-PVDZ AUX)
    Blend: AUG-CC-PVDZ-JKFIT
    Number of shells: 616
    Number of basis function: 1824
    Number of Cartesian functions: 2106
    Spherical Harmonics?: true
    Max angular momentum: 3

  Minimum eigenvalue in the overlap matrix is 8.2902654422E-06.
  Using Symmetric Orthogonalization.

  SCF Guess: Superposition of Atomic Densities via on-the-fly atomic UHF.

  ==> Iterations <==

                           Total Energy        Delta E     RMS |[F,P]|

   @DF-RHF iter   0:  -874.94540948124279   -8.74945e+02   3.72215e-02 
   @DF-RHF iter   1:  -868.68140245843995    6.26401e+00   4.72027e-03 
   @DF-RHF iter   2:  -869.05245440131353   -3.71052e-01   3.11643e-03 DIIS
   @DF-RHF iter   3:  -869.20994971896357   -1.57495e-01   7.28994e-04 DIIS
   @DF-RHF iter   4:  -869.23132737236233   -2.13777e-02   2.58123e-04 DIIS
   @DF-RHF iter   5:  -869.23484524807225   -3.51788e-03   1.18695e-04 DIIS
   @DF-RHF iter   6:  -869.23598224420380   -1.13700e-03   5.15037e-05 DIIS
   @DF-RHF iter   7:  -869.23626300788828   -2.80764e-04   2.08065e-05 DIIS
   @DF-RHF iter   8:  -869.23630833445827   -4.53266e-05   1.05144e-05 DIIS
   @DF-RHF iter   9:  -869.23631786341662   -9.52896e-06   5.00413e-06 DIIS
   @DF-RHF iter  10:  -869.23632034486275   -2.48145e-06   2.15885e-06 DIIS
   @DF-RHF iter  11:  -869.23632076825345   -4.23391e-07   7.04817e-07 DIIS

  ==> Post-Iterations <==

    Orbital Energies (a.u.)
    -----------------------

    Doubly Occupied:                                                      

       1A    -20.650565     2A    -20.603845     3A    -20.575604  
       4A    -20.570824     5A    -20.546252     6A    -20.522242  
       7A    -15.567986     8A    -15.557879     9A    -11.401095  
      10A    -11.370576    11A    -11.347487    12A    -11.344747  
      13A    -11.301458    14A    -11.290079    15A    -11.268459  
      16A    -11.239156    17A     -1.528362    18A     -1.495087  
      19A     -1.397552    20A     -1.395440    21A     -1.355544  
      22A     -1.331765    23A     -1.216307    24A     -1.200739  
      25A     -1.055281    26A     -1.039915    27A     -0.949786  
      28A     -0.932528    29A     -0.905750    30A     -0.867334  
      31A     -0.802201    32A     -0.790526    33A     -0.746921  
      34A     -0.726891    35A     -0.715938    36A     -0.690818  
      37A     -0.687803    38A     -0.686797    39A     -0.682215  
      40A     -0.658875    41A     -0.657922    42A     -0.648439  
      43A     -0.641936    44A     -0.629101    45A     -0.624769  
      46A     -0.617295    47A     -0.570974    48A     -0.558845  
      49A     -0.554040    50A     -0.530031    51A     -0.524398  
      52A     -0.515342    53A     -0.513533    54A     -0.499045  
      55A     -0.468275    56A     -0.457242    57A     -0.449618  
      58A     -0.442015    59A     -0.440112    60A     -0.429000  
      61A     -0.384011    62A     -0.371832  

    Virtual:                                                              

      63A      0.016133    64A      0.026488    65A      0.033360  
      66A      0.038873    67A      0.046480    68A      0.053298  
      69A      0.057478    70A      0.060287    71A      0.063823  
      72A      0.069185    73A      0.075965    74A      0.079358  
      75A      0.086271    76A      0.090727    77A      0.102425  
      78A      0.107387    79A      0.110929    80A      0.113479  
      81A      0.120837    82A      0.126054    83A      0.133197  
      84A      0.135539    85A      0.136490    86A      0.143206  
      87A      0.146944    88A      0.150860    89A      0.153497  
      90A      0.156030    91A      0.157552    92A      0.161989  
      93A      0.164380    94A      0.165173    95A      0.167488  
      96A      0.171666    97A      0.173848    98A      0.175112  
      99A      0.179364   100A      0.184617   101A      0.187571  
     102A      0.190155   103A      0.195153   104A      0.198783  
     105A      0.209780   106A      0.215498   107A      0.216399  
     108A      0.222294   109A      0.225893   110A      0.228657  
     111A      0.231972   112A      0.233603   113A      0.242375  
     114A      0.246176   115A      0.250358   116A      0.254263  
     117A      0.261351   118A      0.266327   119A      0.275555  
     120A      0.286582   121A      0.288133   122A      0.296065  
     123A      0.301679   124A      0.308800   125A      0.317791  
     126A      0.321814   127A      0.326499   128A      0.333370  
     129A      0.335063   130A      0.339872   131A      0.344338  
     132A      0.348229   133A      0.350944   134A      0.353828  
     135A      0.359168   136A      0.364679   137A      0.366136  
     138A      0.368965   139A      0.372358   140A      0.372854  
     141A      0.379039   142A      0.381639   143A      0.387563  
     144A      0.390640   145A      0.394321   146A      0.400903  
     147A      0.403322   148A      0.407576   149A      0.410143  
     150A      0.414989   151A      0.419876   152A      0.421129  
     153A      0.428643   154A      0.429581   155A      0.432865  
     156A      0.437535   157A      0.438635   158A      0.440725  
     159A      0.450669   160A      0.460180   161A      0.462636  
     162A      0.466415   163A      0.470575   164A      0.476059  
     165A      0.480721   166A      0.486915   167A      0.491800  
     168A      0.496466   169A      0.499579   170A      0.507293  
     171A      0.508651   172A      0.511973   173A      0.516694  
     174A      0.523762   175A      0.526090   176A      0.530554  
     177A      0.531924   178A      0.538368   179A      0.550149  
     180A      0.560141   181A      0.560329   182A      0.561631  
     183A      0.568405   184A      0.573905   185A      0.579253  
     186A      0.580966   187A      0.585741   188A      0.591709  
     189A      0.595448   190A      0.599403   191A      0.607436  
     192A      0.612974   193A      0.618335   194A      0.623373  
     195A      0.630811   196A      0.635062   197A      0.643282  
     198A      0.648206   199A      0.655040   200A      0.659132  
     201A      0.663618   202A      0.669955   203A      0.672279  
     204A      0.679888   205A      0.684854   206A      0.693974  
     207A      0.697927   208A      0.700631   209A      0.712082  
     210A      0.712506   211A      0.721797   212A      0.724719  
     213A      0.730529   214A      0.742589   215A      0.744638  
     216A      0.748954   217A      0.756242   218A      0.760578  
     219A      0.766427   220A      0.771983   221A      0.777916  
     222A      0.783081   223A      0.789521   224A      0.791046  
     225A      0.798404   226A      0.801307   227A      0.807584  
     228A      0.812229   229A      0.819400   230A      0.822992  
     231A      0.826713   232A      0.831742   233A      0.834329  
     234A      0.842389   235A      0.850827   236A      0.861510  
     237A      0.867383   238A      0.879806   239A      0.882519  
     240A      0.884993   241A      0.899679   242A      0.906614  
     243A      0.912936   244A      0.923592   245A      0.934722  
     246A      0.936101   247A      0.938843   248A      0.944610  
     249A      0.949562   250A      0.952435   251A      0.961748  
     252A      0.965504   253A      0.967893   254A      0.969946  
     255A      0.985198   256A      0.998311   257A      1.002321  
     258A      1.008321   259A      1.012790   260A      1.024536  
     261A      1.032913   262A      1.038784   263A      1.050485  
     264A      1.053906   265A      1.054903   266A      1.064256  
     267A      1.070291   268A      1.072422   269A      1.084006  
     270A      1.092707   271A      1.100757   272A      1.107973  
     273A      1.121505   274A      1.127101   275A      1.132187  
     276A      1.143489   277A      1.148860   278A      1.153070  
     279A      1.175487   280A      1.185740   281A      1.209677  
     282A      1.216467   283A      1.228718   284A      1.238033  
     285A      1.257940   286A      1.264404   287A      1.270605  
     288A      1.283596   289A      1.283832   290A      1.291305  
     291A      1.293408   292A      1.302669   293A      1.319055  
     294A      1.332524   295A      1.339057   296A      1.342646  
     297A      1.347111   298A      1.359240   299A      1.361366  
     300A      1.399416   301A      1.403879   302A      1.408589  
     303A      1.415707   304A      1.427212   305A      1.442525  
     306A      1.453491   307A      1.471890   308A      1.484103  
     309A      1.489760   310A      1.496954   311A      1.502279  
     312A      1.505676   313A      1.510335   314A      1.514539  
     315A      1.523788   316A      1.529924   317A      1.543445  
     318A      1.557722   319A      1.574427   320A      1.578963  
     321A      1.591282   322A      1.611838   323A      1.633778  
     324A      1.646855   325A      1.652552   326A      1.673407  
     327A      1.686683   328A      1.689554   329A      1.699048  
     330A      1.715157   331A      1.719622   332A      1.724987  
     333A      1.749153   334A      1.760536   335A      1.765572  
     336A      1.785086   337A      1.789084   338A      1.799542  
     339A      1.808519   340A      1.823288   341A      1.838869  
     342A      1.845940   343A      1.856658   344A      1.869946  
     345A      1.872188   346A      1.901704   347A      1.905004  
     348A      1.914046   349A      1.925997   350A      1.945265  
     351A      1.947019   352A      1.950929   353A      1.954606  
     354A      1.957907   355A      1.972461   356A      1.987634  
     357A      2.005147   358A      2.019949   359A      2.028961  
     360A      2.030159   361A      2.039606   362A      2.053046  
     363A      2.057037   364A      2.062235   365A      2.074757  
     366A      2.095581   367A      2.106350   368A      2.119431  
     369A      2.129019   370A      2.133131   371A      2.136484  
     372A      2.160345   373A      2.163580   374A      2.169711  
     375A      2.176975   376A      2.189272   377A      2.193752  
     378A      2.208213   379A      2.212173   380A      2.237755  
     381A      2.245263   382A      2.256171   383A      2.258288  
     384A      2.276820   385A      2.281254   386A      2.299868  
     387A      2.308501   388A      2.327170   389A      2.334112  
     390A      2.335260   391A      2.341457   392A      2.349235  
     393A      2.352683   394A      2.372271   395A      2.375400  
     396A      2.393729   397A      2.403288   398A      2.417395  
     399A      2.430333   400A      2.438492   401A      2.441201  
     402A      2.454683   403A      2.457453   404A      2.482552  
     405A      2.488869   406A      2.494627   407A      2.502366  
     408A      2.513041   409A      2.550916   410A      2.562827  
     411A      2.569565   412A      2.580018   413A      2.593593  
     414A      2.613575   415A      2.614253   416A      2.622463  
     417A      2.638224   418A      2.640453   419A      2.671807  
     420A      2.678579   421A      2.715346   422A      2.718961  
     423A      2.728965   424A      2.739772   425A      2.743125  
     426A      2.753962   427A      2.801098   428A      2.841105  
     429A      2.860407   430A      2.865355   431A      2.871755  
     432A      2.872252   433A      2.878636   434A      2.894075  
     435A      2.896524   436A      2.923244   437A      2.929378  
     438A      2.953224   439A      2.992910   440A      3.000455  
     441A      3.012309   442A      3.052642   443A      3.056927  
     444A      3.083586   445A      3.094143   446A      3.130686  
     447A      3.157176   448A      3.170079   449A      3.201912  
     450A      3.227781   451A      3.307664   452A      3.348759  
     453A      3.361666   454A      3.371724   455A      3.407661  
     456A      3.411143   457A      3.507659   458A      3.540310  
     459A      3.583306   460A      3.617456   461A      3.676015  
     462A      3.677806   463A      3.699772   464A      3.718010  
     465A      3.723937   466A      3.751131   467A      3.774164  
     468A      3.780265   469A      3.793561   470A      3.804918  
     471A      3.809807   472A      3.829955   473A      3.833836  
     474A      3.838570   475A      3.855629   476A      3.877351  
     477A      3.890629   478A      3.903711   479A      3.914764  
     480A      3.933889   481A      3.951152   482A      3.951570  
     483A      3.978230   484A      4.003337   485A      4.019021  
     486A      4.029860   487A      4.102126   488A      4.119118  
     489A      4.155353   490A      4.166310   491A      4.206207  
     492A      4.290269   493A      4.363588   494A      4.397121  

    Final Occupation by Irrep:
              A 
    DOCC [    62 ]

  Energy converged.

  @DF-RHF Final Energy:  -869.23632076825345

   => Energetics <=

    Nuclear Repulsion Energy =           1089.6016289307808620
    One-Electron Energy =               -3356.5833298177381039
    Two-Electron Energy =                1397.7453801187036788
    Total Energy =                       -869.2363207682535631



Properties will be evaluated at   0.000000,   0.000000,   0.000000 Bohr

Properties computed using the SCF density matrix

  Nuclear Dipole Moment: (a.u.)
     X:     6.4283      Y:     6.0223      Z:    -0.7176

  Electronic Dipole Moment: (a.u.)
     X:    -4.3588      Y:    -4.8257      Z:     2.4996

  Dipole Moment: (a.u.)
     X:     2.0695      Y:     1.1967      Z:     1.7821     Total:     2.9817

  Dipole Moment: (Debye)
     X:     5.2602      Y:     3.0416      Z:     4.5295     Total:     7.5788


*** tstop() called on hex15 at Thu Mar  1 17:28:39 2018
Module time:
	user time   =     172.68 seconds =       2.88 minutes
	system time =       1.83 seconds =       0.03 minutes
	total time  =         55 seconds =       0.92 minutes
Total time:
	user time   =     172.68 seconds =       2.88 minutes
	system time =       1.83 seconds =       0.03 minutes
	total time  =         55 seconds =       0.92 minutes

*** Psi4 exiting successfully. Buy a developer a beer!
