
    -----------------------------------------------------------------------
          Psi4: An Open-Source Ab Initio Electronic Structure Package
                               Psi4 1.2a1.dev875 

                         Git: Rev {symm_JK} 0ea9481 dirty


    R. M. Parrish, L. A. Burns, D. G. A. Smith, A. C. Simmonett,
    A. E. DePrince III, E. G. Hohenstein, U. Bozkaya, A. Yu. Sokolov,
    R. Di Remigio, R. M. Richard, J. F. Gonthier, A. M. James,
    H. R. McAlexander, A. Kumar, M. Saitow, X. Wang, B. P. Pritchard,
    P. Verma, H. F. Schaefer III, K. Patkowski, R. A. King, E. F. Valeev,
    F. A. Evangelista, J. M. Turney, T. D. Crawford, and C. D. Sherrill,
    J. Chem. Theory Comput. 13(7) pp 3185--3197 (2017).
    (doi: 10.1021/acs.jctc.7b00174)

    -----------------------------------------------------------------------


    Psi4 started on: Thursday, 01 March 2018 05:02PM

    Process ID:  27993
    PSIDATADIR: /theoryfs2/ds/schieber/Gits/mspsi4/objdir3/stage/usr/local/psi4/share/psi4
    Memory:     500.0 MiB
    Threads:    6
    
  ==> Input File <==

--------------------------------------------------------------------------
memory 60 Gb

molecule protein_54 {
0 1
 N   18.626  30.444   6.627
 C   17.853  29.516   5.837
 C   16.945  30.292   4.886
 O   15.843  30.678   5.237
 C   17.047  28.642   6.811
 C   16.316  27.513   6.146
 O   16.236  27.458   4.905
 O   15.762  26.696   6.882
 N   17.407  27.054  -1.437
 C   17.227  26.751  -0.026
 C   18.555  26.446   0.653
 O   19.003  25.309   0.692
 C   16.258  25.572   0.084
 C   15.759  25.336   1.493
 O   16.399  25.780   2.453
 O   14.731  24.675   1.645
 N   19.106  26.199   3.688
 C   18.957  25.372   4.876
 C   18.845  23.903   4.520
 O   18.660  23.054   5.417
 N   20.536  20.559   2.918
 C   21.779  19.912   2.496
 C   21.693  19.374   1.107
 O   22.642  19.502   0.361
 C   22.169  18.827   3.447
 C   22.272  19.337   4.844
 O   22.714  20.482   5.029
 O   21.836  18.647   5.778
 H   18.180  30.990   7.295
 H   18.510  28.835   5.249
 H   16.336  29.276   7.377
 H   17.778  28.186   7.516
 H   15.845  26.702   7.843
 H   17.860  26.421  -2.023
 H   16.724  27.595   0.500
 H   16.724  24.663  -0.337
 H   15.363  25.845  -0.519
 H   16.737  25.171   3.109
 H   18.314  26.771   3.377
 H   18.015  25.631   5.391
 H   19.792  25.567   5.577
 H   19.976  20.073   3.597
 H   22.602  20.664   2.537
 H   23.175  18.459   3.144
 H   21.465  17.966   3.392
 H   21.492  17.752   5.634
 H   19.646  30.419   6.619
 H   17.295  30.415   3.850
 H   16.947  27.858  -1.864
 H   19.060  27.284   1.155
 H   20.034  26.347   3.290
 H   18.824  23.654   3.449
 H   20.197  21.395   2.443
 H   20.727  18.956   0.786
}

set {
basis cc-pvdz
scf_type df
guess sad
DF_SCF_TYPE DFJK
}

energy('HF')
--------------------------------------------------------------------------

  Memory set to  55.879 GiB by Python driver.

*** tstart() called on hex15
*** at Thu Mar  1 17:02:50 2018

   => Loading Basis Set <=

    Name: CC-PVDZ
    Role: ORBITAL
    Keyword: BASIS
    atoms 1, 9, 17, 21                                entry N          line   168 file /theoryfs2/ds/schieber/Gits/mspsi4/objdir3/stage/usr/local/psi4/share/psi4/basis/cc-pvdz.gbs 
    atoms 2-3, 5-6, 10-11, 13-14, 18-19, 22-23, 25-26 entry C          line   138 file /theoryfs2/ds/schieber/Gits/mspsi4/objdir3/stage/usr/local/psi4/share/psi4/basis/cc-pvdz.gbs 
    atoms 4, 7-8, 12, 15-16, 20, 24, 27-28            entry O          line   198 file /theoryfs2/ds/schieber/Gits/mspsi4/objdir3/stage/usr/local/psi4/share/psi4/basis/cc-pvdz.gbs 
    atoms 29-54                                       entry H          line    22 file /theoryfs2/ds/schieber/Gits/mspsi4/objdir3/stage/usr/local/psi4/share/psi4/basis/cc-pvdz.gbs 


         ---------------------------------------------------------
                                   SCF
            by Justin Turney, Rob Parrish, Andy Simmonett
                             and Daniel Smith
                              RHF Reference
                        6 Threads,  57220 MiB Core
         ---------------------------------------------------------

  ==> Geometry <==

    Molecular point group: c1
    Full point group: C1

    Geometry (in Angstrom), charge = 0, multiplicity = 1:

       Center              X                  Y                   Z               Mass       
    ------------   -----------------  -----------------  -----------------  -----------------
           N          0.020074539305     5.686424476598     3.129539240050    14.003074004780
           C         -0.752925460695     4.758424476598     2.339539240050    12.000000000000
           C         -1.660925460695     5.534424476598     1.388539240050    12.000000000000
           O         -2.762925460695     5.920424476598     1.739539240050    15.994914619560
           C         -1.558925460695     3.884424476598     3.313539240050    12.000000000000
           C         -2.289925460695     2.755424476598     2.648539240050    12.000000000000
           O         -2.369925460695     2.700424476598     1.407539240050    15.994914619560
           O         -2.843925460695     1.938424476598     3.384539240050    15.994914619560
           N         -1.198925460695     2.296424476598    -4.934460759950    14.003074004780
           C         -1.378925460695     1.993424476598    -3.523460759950    12.000000000000
           C         -0.050925460695     1.688424476598    -2.844460759950    12.000000000000
           O          0.397074539305     0.551424476598    -2.805460759950    15.994914619560
           C         -2.347925460695     0.814424476598    -3.413460759950    12.000000000000
           C         -2.846925460695     0.578424476598    -2.004460759950    12.000000000000
           O         -2.206925460695     1.022424476598    -1.044460759950    15.994914619560
           O         -3.874925460695    -0.082575523402    -1.852460759950    15.994914619560
           N          0.500074539305     1.441424476598     0.190539240050    14.003074004780
           C          0.351074539305     0.614424476598     1.378539240050    12.000000000000
           C          0.239074539305    -0.854575523402     1.022539240050    12.000000000000
           O          0.054074539305    -1.703575523402     1.919539240050    15.994914619560
           N          1.930074539305    -4.198575523402    -0.579460759950    14.003074004780
           C          3.173074539305    -4.845575523402    -1.001460759950    12.000000000000
           C          3.087074539305    -5.383575523402    -2.390460759950    12.000000000000
           O          4.036074539305    -5.255575523402    -3.136460759950    15.994914619560
           C          3.563074539305    -5.930575523402    -0.050460759950    12.000000000000
           C          3.666074539305    -5.420575523402     1.346539240050    12.000000000000
           O          4.108074539305    -4.275575523402     1.531539240050    15.994914619560
           O          3.230074539305    -6.110575523402     2.280539240050    15.994914619560
           H         -0.425925460695     6.232424476598     3.797539240050     1.007825032070
           H         -0.095925460695     4.077424476598     1.751539240050     1.007825032070
           H         -2.269925460695     4.518424476598     3.879539240050     1.007825032070
           H         -0.827925460695     3.428424476598     4.018539240050     1.007825032070
           H         -2.760925460695     1.944424476598     4.345539240050     1.007825032070
           H         -0.745925460695     1.663424476598    -5.520460759950     1.007825032070
           H         -1.881925460695     2.837424476598    -2.997460759950     1.007825032070
           H         -1.881925460695    -0.094575523402    -3.834460759950     1.007825032070
           H         -3.242925460695     1.087424476598    -4.016460759950     1.007825032070
           H         -1.868925460695     0.413424476598    -0.388460759950     1.007825032070
           H         -0.291925460695     2.013424476598    -0.120460759950     1.007825032070
           H         -0.590925460695     0.873424476598     1.893539240050     1.007825032070
           H          1.186074539305     0.809424476598     2.079539240050     1.007825032070
           H          1.370074539305    -4.684575523402     0.099539240050     1.007825032070
           H          3.996074539305    -4.093575523402    -0.960460759950     1.007825032070
           H          4.569074539305    -6.298575523402    -0.353460759950     1.007825032070
           H          2.859074539305    -6.791575523402    -0.105460759950     1.007825032070
           H          2.886074539305    -7.005575523402     2.136539240050     1.007825032070
           H          1.040074539305     5.661424476598     3.121539240050     1.007825032070
           H         -1.310925460695     5.657424476598     0.352539240050     1.007825032070
           H         -1.658925460695     3.100424476598    -5.361460759950     1.007825032070
           H          0.454074539305     2.526424476598    -2.342460759950     1.007825032070
           H          1.428074539305     1.589424476598    -0.207460759950     1.007825032070
           H          0.218074539305    -1.103575523402    -0.048460759950     1.007825032070
           H          1.591074539305    -3.362575523402    -1.054460759950     1.007825032070
           H          2.121074539305    -5.801575523402    -2.711460759950     1.007825032070

  Running in c1 symmetry.

  Rotational constants: A =      0.00569  B =      0.00205  C =      0.00170 [cm^-1]
  Rotational constants: A =    170.63320  B =     61.47394  C =     50.92296 [MHz]
  Nuclear repulsion = 2605.305023422821705

  Charge       = 0
  Multiplicity = 1
  Electrons    = 218
  Nalpha       = 109
  Nbeta        = 109

  ==> Algorithm <==

  SCF Algorithm Type is DF.
  DIIS enabled.
  MOM disabled.
  Fractional occupation disabled.
  Guess Type is SAD.
  Energy threshold   = 1.00e-06
  Density threshold  = 1.00e-06
  Integral threshold = 0.00e+00

  ==> Primary Basis <==

  Basis Set: CC-PVDZ
    Blend: CC-PVDZ
    Number of shells: 246
    Number of basis function: 522
    Number of Cartesian functions: 550
    Spherical Harmonics?: true
    Max angular momentum: 2

   => Loading Basis Set <=

    Name: (CC-PVDZ AUX)
    Role: JKFIT
    Keyword: DF_BASIS_SCF
    atoms 1, 9, 17, 21                                entry N          line   171 file /theoryfs2/ds/schieber/Gits/mspsi4/objdir3/stage/usr/local/psi4/share/psi4/basis/cc-pvdz-jkfit.gbs 
    atoms 2-3, 5-6, 10-11, 13-14, 18-19, 22-23, 25-26 entry C          line   121 file /theoryfs2/ds/schieber/Gits/mspsi4/objdir3/stage/usr/local/psi4/share/psi4/basis/cc-pvdz-jkfit.gbs 
    atoms 4, 7-8, 12, 15-16, 20, 24, 27-28            entry O          line   221 file /theoryfs2/ds/schieber/Gits/mspsi4/objdir3/stage/usr/local/psi4/share/psi4/basis/cc-pvdz-jkfit.gbs 
    atoms 29-54                                       entry H          line    51 file /theoryfs2/ds/schieber/Gits/mspsi4/objdir3/stage/usr/local/psi4/share/psi4/basis/cc-pvdz-jkfit.gbs 

  ==> Pre-Iterations <==

   -------------------------------------------------------
    Irrep   Nso     Nmo     Nalpha   Nbeta   Ndocc  Nsocc
   -------------------------------------------------------
     A        522     522       0       0       0       0
   -------------------------------------------------------
    Total     522     522     109     109     109       0
   -------------------------------------------------------

  ==> Integral Setup <==

  ==> DFJK: Density-Fitted J/K Matrices <==

    J tasked:                  Yes
    K tasked:                  Yes
    wK tasked:                  No
    OpenMP threads:              6
    Integrals threads:           6
    Memory (MB):             42915
    Algorithm:                Core
    Integral Cache:           NONE
    Schwarz Cutoff:          1E-12
    Fitting Condition:       1E-12

   => Auxiliary Basis Set <=

  Basis Set: (CC-PVDZ AUX)
    Blend: CC-PVDZ-JKFIT
    Number of shells: 906
    Number of basis function: 2558
    Number of Cartesian functions: 2918
    Spherical Harmonics?: true
    Max angular momentum: 3

  Minimum eigenvalue in the overlap matrix is 1.9605949742E-03.
  Using Symmetric Orthogonalization.

  SCF Guess: Superposition of Atomic Densities via on-the-fly atomic UHF.

  ==> Iterations <==

                           Total Energy        Delta E     RMS |[F,P]|

   @DF-RHF iter   0: -1521.82950357214668   -1.52183e+03   4.60672e-02 
   @DF-RHF iter   1: -1510.69301886636731    1.11365e+01   5.82190e-03 
   @DF-RHF iter   2: -1511.36661577919108   -6.73597e-01   3.81490e-03 DIIS
   @DF-RHF iter   3: -1511.63294599528945   -2.66330e-01   9.38461e-04 DIIS
   @DF-RHF iter   4: -1511.67200004179381   -3.90540e-02   3.28732e-04 DIIS
   @DF-RHF iter   5: -1511.67864409430490   -6.64405e-03   1.50144e-04 DIIS
   @DF-RHF iter   6: -1511.68067340045127   -2.02931e-03   7.30852e-05 DIIS
   @DF-RHF iter   7: -1511.68129079934192   -6.17399e-04   3.48203e-05 DIIS
   @DF-RHF iter   8: -1511.68142067712870   -1.29878e-04   1.74013e-05 DIIS
   @DF-RHF iter   9: -1511.68145462815619   -3.39510e-05   7.20227e-06 DIIS
   @DF-RHF iter  10: -1511.68146098811008   -6.35995e-06   2.99317e-06 DIIS
   @DF-RHF iter  11: -1511.68146191995766   -9.31848e-07   1.06248e-06 DIIS
   @DF-RHF iter  12: -1511.68146201787522   -9.79176e-08   4.64637e-07 DIIS

  ==> Post-Iterations <==

    Orbital Energies (a.u.)
    -----------------------

    Doubly Occupied:                                                      

       1A    -20.643655     2A    -20.632848     3A    -20.602925  
       4A    -20.569218     5A    -20.560701     6A    -20.557770  
       7A    -20.557684     8A    -20.540295     9A    -20.517874  
      10A    -20.514180    11A    -15.556095    12A    -15.549570  
      13A    -15.549240    14A    -15.541356    15A    -11.399793  
      16A    -11.384271    17A    -11.368132    18A    -11.346181  
      19A    -11.339041    20A    -11.335857    21A    -11.327761  
      22A    -11.294382    23A    -11.287855    24A    -11.281632  
      25A    -11.273471    26A    -11.266020    27A    -11.265090  
      28A    -11.238515    29A     -1.526437    30A     -1.509332  
      31A     -1.497044    32A     -1.395918    33A     -1.390075  
      34A     -1.390036    35A     -1.365694    36A     -1.354888  
      37A     -1.335813    38A     -1.329743    39A     -1.208459  
      40A     -1.196566    41A     -1.188207    42A     -1.180405  
      43A     -1.052449    44A     -1.051828    45A     -1.039580  
      46A     -0.960241    47A     -0.946279    48A     -0.936003  
      49A     -0.933120    50A     -0.903063    51A     -0.885675  
      52A     -0.871054    53A     -0.805109    54A     -0.798330  
      55A     -0.793837    56A     -0.790731    57A     -0.742540  
      58A     -0.728699    59A     -0.725988    60A     -0.713792  
      61A     -0.705895    62A     -0.700034    63A     -0.689526  
      64A     -0.687973    65A     -0.682475    66A     -0.679626  
      67A     -0.673377    68A     -0.660599    69A     -0.659475  
      70A     -0.656106    71A     -0.652873    72A     -0.650778  
      73A     -0.648049    74A     -0.637176    75A     -0.628528  
      76A     -0.625896    77A     -0.624456    78A     -0.623372  
      79A     -0.616780    80A     -0.604291    81A     -0.584167  
      82A     -0.571941    83A     -0.569037    84A     -0.561065  
      85A     -0.556276    86A     -0.553079    87A     -0.543242  
      88A     -0.527363    89A     -0.526942    90A     -0.525031  
      91A     -0.515063    92A     -0.508311    93A     -0.499109  
      94A     -0.494629    95A     -0.480639    96A     -0.465933  
      97A     -0.454651    98A     -0.450139    99A     -0.449078  
     100A     -0.440977   101A     -0.437656   102A     -0.436655  
     103A     -0.431500   104A     -0.427762   105A     -0.425273  
     106A     -0.378988   107A     -0.374744   108A     -0.369970  
     109A     -0.368701  

    Virtual:                                                              

     110A      0.116578   111A      0.128600   112A      0.133778  
     113A      0.138276   114A      0.140236   115A      0.141064  
     116A      0.151905   117A      0.168494   118A      0.172732  
     119A      0.179584   120A      0.180263   121A      0.188269  
     122A      0.193364   123A      0.197368   124A      0.207756  
     125A      0.210657   126A      0.213558   127A      0.222261  
     128A      0.230143   129A      0.232918   130A      0.238601  
     131A      0.245040   132A      0.246054   133A      0.257228  
     134A      0.261926   135A      0.273468   136A      0.275691  
     137A      0.276830   138A      0.284549   139A      0.291046  
     140A      0.308194   141A      0.332190   142A      0.341384  
     143A      0.349248   144A      0.354997   145A      0.365689  
     146A      0.379712   147A      0.400895   148A      0.415744  
     149A      0.420362   150A      0.425558   151A      0.430946  
     152A      0.432759   153A      0.439750   154A      0.442362  
     155A      0.451204   156A      0.457885   157A      0.458855  
     158A      0.470486   159A      0.483457   160A      0.489541  
     161A      0.501791   162A      0.510165   163A      0.517227  
     164A      0.545657   165A      0.565266   166A      0.596358  
     167A      0.622936   168A      0.629502   169A      0.634177  
     170A      0.641861   171A      0.653435   172A      0.672706  
     173A      0.682153   174A      0.691136   175A      0.691884  
     176A      0.696290   177A      0.700874   178A      0.706394  
     179A      0.707071   180A      0.712967   181A      0.721221  
     182A      0.722816   183A      0.734311   184A      0.737879  
     185A      0.741341   186A      0.746125   187A      0.748764  
     188A      0.754317   189A      0.760354   190A      0.767132  
     191A      0.771978   192A      0.777032   193A      0.780169  
     194A      0.793891   195A      0.796272   196A      0.799827  
     197A      0.801518   198A      0.805551   199A      0.813118  
     200A      0.820492   201A      0.825538   202A      0.839436  
     203A      0.839860   204A      0.848785   205A      0.851345  
     206A      0.853454   207A      0.857039   208A      0.861421  
     209A      0.863768   210A      0.867387   211A      0.869626  
     212A      0.875678   213A      0.876561   214A      0.882125  
     215A      0.883513   216A      0.885201   217A      0.888856  
     218A      0.892737   219A      0.894063   220A      0.898594  
     221A      0.905938   222A      0.908735   223A      0.914435  
     224A      0.921776   225A      0.930875   226A      0.935542  
     227A      0.944384   228A      0.954572   229A      0.960592  
     230A      0.963997   231A      0.974041   232A      0.976593  
     233A      0.979599   234A      0.996578   235A      1.005656  
     236A      1.007790   237A      1.017378   238A      1.024318  
     239A      1.032956   240A      1.036864   241A      1.055909  
     242A      1.058326   243A      1.062332   244A      1.076285  
     245A      1.078875   246A      1.091484   247A      1.093048  
     248A      1.100240   249A      1.105883   250A      1.115019  
     251A      1.118581   252A      1.134559   253A      1.138072  
     254A      1.140344   255A      1.160657   256A      1.163977  
     257A      1.179929   258A      1.184499   259A      1.207411  
     260A      1.211629   261A      1.223610   262A      1.243675  
     263A      1.255297   264A      1.282638   265A      1.287910  
     266A      1.288011   267A      1.293337   268A      1.295122  
     269A      1.302196   270A      1.314277   271A      1.320854  
     272A      1.326591   273A      1.326827   274A      1.341399  
     275A      1.344287   276A      1.356014   277A      1.359464  
     278A      1.362572   279A      1.364642   280A      1.371659  
     281A      1.373553   282A      1.376969   283A      1.385710  
     284A      1.388955   285A      1.394542   286A      1.398202  
     287A      1.402668   288A      1.406666   289A      1.410493  
     290A      1.421652   291A      1.432144   292A      1.436722  
     293A      1.439892   294A      1.445997   295A      1.461921  
     296A      1.469986   297A      1.472365   298A      1.475923  
     299A      1.487524   300A      1.500139   301A      1.508412  
     302A      1.515111   303A      1.526918   304A      1.536190  
     305A      1.546757   306A      1.555454   307A      1.562342  
     308A      1.580011   309A      1.590217   310A      1.599211  
     311A      1.607989   312A      1.610812   313A      1.615292  
     314A      1.618976   315A      1.637012   316A      1.644952  
     317A      1.652320   318A      1.662268   319A      1.670661  
     320A      1.679568   321A      1.682055   322A      1.696843  
     323A      1.698636   324A      1.700360   325A      1.717555  
     326A      1.724114   327A      1.734653   328A      1.739646  
     329A      1.744475   330A      1.777834   331A      1.785554  
     332A      1.790457   333A      1.803179   334A      1.813068  
     335A      1.821755   336A      1.825373   337A      1.831471  
     338A      1.842317   339A      1.853704   340A      1.859634  
     341A      1.866433   342A      1.875107   343A      1.882224  
     344A      1.882849   345A      1.890428   346A      1.903911  
     347A      1.910515   348A      1.916494   349A      1.921962  
     350A      1.924153   351A      1.927700   352A      1.935190  
     353A      1.936485   354A      1.947869   355A      1.948372  
     356A      1.954038   357A      1.956831   358A      1.961916  
     359A      1.963217   360A      1.971601   361A      1.972025  
     362A      1.980431   363A      1.980783   364A      1.991608  
     365A      2.000101   366A      2.008465   367A      2.015023  
     368A      2.017436   369A      2.030708   370A      2.040245  
     371A      2.045851   372A      2.051520   373A      2.053113  
     374A      2.062749   375A      2.071954   376A      2.080423  
     377A      2.080960   378A      2.089920   379A      2.096800  
     380A      2.106855   381A      2.109328   382A      2.114894  
     383A      2.127888   384A      2.129847   385A      2.138346  
     386A      2.142872   387A      2.144202   388A      2.154916  
     389A      2.173304   390A      2.183127   391A      2.184788  
     392A      2.185938   393A      2.188405   394A      2.203961  
     395A      2.205231   396A      2.210866   397A      2.226088  
     398A      2.233202   399A      2.234631   400A      2.255637  
     401A      2.275496   402A      2.276385   403A      2.305839  
     404A      2.314853   405A      2.321869   406A      2.346081  
     407A      2.359437   408A      2.360472   409A      2.364922  
     410A      2.385887   411A      2.392215   412A      2.425479  
     413A      2.433850   414A      2.445544   415A      2.447955  
     416A      2.448196   417A      2.474718   418A      2.482721  
     419A      2.487922   420A      2.496209   421A      2.502928  
     422A      2.505411   423A      2.523814   424A      2.529391  
     425A      2.544317   426A      2.546645   427A      2.556066  
     428A      2.569520   429A      2.607920   430A      2.609808  
     431A      2.611232   432A      2.614136   433A      2.625251  
     434A      2.641583   435A      2.649405   436A      2.653073  
     437A      2.659886   438A      2.671648   439A      2.694984  
     440A      2.699047   441A      2.708785   442A      2.724664  
     443A      2.727004   444A      2.730850   445A      2.743488  
     446A      2.775210   447A      2.775492   448A      2.788029  
     449A      2.791805   450A      2.796666   451A      2.813941  
     452A      2.820574   453A      2.852893   454A      2.861061  
     455A      2.868917   456A      2.884490   457A      2.885154  
     458A      2.889818   459A      2.896059   460A      2.903766  
     461A      2.912481   462A      2.970183   463A      2.981650  
     464A      3.006122   465A      3.020976   466A      3.041575  
     467A      3.057948   468A      3.062311   469A      3.070634  
     470A      3.074955   471A      3.076578   472A      3.085780  
     473A      3.092130   474A      3.104218   475A      3.117947  
     476A      3.118517   477A      3.146987   478A      3.152894  
     479A      3.160631   480A      3.190689   481A      3.229984  
     482A      3.294855   483A      3.306110   484A      3.308160  
     485A      3.316073   486A      3.368236   487A      3.400705  
     488A      3.410325   489A      3.417593   490A      3.423883  
     491A      3.430181   492A      3.432160   493A      3.464616  
     494A      3.470219   495A      3.475316   496A      3.481130  
     497A      3.497971   498A      3.507144   499A      3.514049  
     500A      3.547731   501A      3.550131   502A      3.566504  
     503A      3.657290   504A      3.677598   505A      3.718283  
     506A      3.736333   507A      3.744494   508A      3.782925  
     509A      3.809980   510A      3.818109   511A      3.831316  
     512A      3.847155   513A      3.850353   514A      3.858902  
     515A      3.859466   516A      3.861642   517A      3.885753  
     518A      3.891933   519A      3.964855   520A      4.166094  
     521A      4.236560   522A      4.243785  

    Final Occupation by Irrep:
              A 
    DOCC [   109 ]

  Energy converged.

  @DF-RHF Final Energy: -1511.68146201787522

   => Energetics <=

    Nuclear Repulsion Energy =           2605.3050234228217050
    One-Electron Energy =               -7258.2061574836716318
    Two-Electron Energy =                3141.2196720429751622
    Total Energy =                      -1511.6814620178752193



Properties will be evaluated at   0.000000,   0.000000,   0.000000 Bohr

Properties computed using the SCF density matrix

  Nuclear Dipole Moment: (a.u.)
     X:     3.6080      Y:     8.5823      Z:    -2.3649

  Electronic Dipole Moment: (a.u.)
     X:    -2.9131      Y:    -7.9536      Z:     3.6271

  Dipole Moment: (a.u.)
     X:     0.6948      Y:     0.6287      Z:     1.2622     Total:     1.5720

  Dipole Moment: (Debye)
     X:     1.7661      Y:     1.5980      Z:     3.2082     Total:     3.9956


*** tstop() called on hex15 at Thu Mar  1 17:04:39 2018
Module time:
	user time   =     301.22 seconds =       5.02 minutes
	system time =       3.14 seconds =       0.05 minutes
	total time  =        109 seconds =       1.82 minutes
Total time:
	user time   =     301.22 seconds =       5.02 minutes
	system time =       3.14 seconds =       0.05 minutes
	total time  =        109 seconds =       1.82 minutes

*** Psi4 exiting successfully. Buy a developer a beer!
