
    -----------------------------------------------------------------------
          Psi4: An Open-Source Ab Initio Electronic Structure Package
                               Psi4 1.2a1.dev875 

                         Git: Rev {symm_JK} 0ea9481 dirty


    R. M. Parrish, L. A. Burns, D. G. A. Smith, A. C. Simmonett,
    A. E. DePrince III, E. G. Hohenstein, U. Bozkaya, A. Yu. Sokolov,
    R. Di Remigio, R. M. Richard, J. F. Gonthier, A. M. James,
    H. R. McAlexander, A. Kumar, M. Saitow, X. Wang, B. P. Pritchard,
    P. Verma, H. F. Schaefer III, K. Patkowski, R. A. King, E. F. Valeev,
    F. A. Evangelista, J. M. Turney, T. D. Crawford, and C. D. Sherrill,
    J. Chem. Theory Comput. 13(7) pp 3185--3197 (2017).
    (doi: 10.1021/acs.jctc.7b00174)

    -----------------------------------------------------------------------


    Psi4 started on: Monday, 05 March 2018 01:11AM

    Process ID:  11739
    PSIDATADIR: /theoryfs2/ds/schieber/Gits/mspsi4/objdir3/stage/usr/local/psi4/share/psi4
    Memory:     500.0 MiB
    Threads:    6
    
  ==> Input File <==

--------------------------------------------------------------------------
memory 60 Gb

molecule protein_81 {
0 1
 N   18.626  30.444   6.627
 C   17.853  29.516   5.837
 C   16.945  30.292   4.886
 O   15.843  30.678   5.237
 C   17.047  28.642   6.811
 C   16.316  27.513   6.146
 O   16.236  27.458   4.905
 O   15.762  26.696   6.882
 N    4.567  24.042   8.795
 C    4.886  22.777   8.145
 C    6.265  22.720   7.521
 O    6.723  23.689   6.900
 N   17.407  27.054  -1.437
 C   17.227  26.751  -0.026
 C   18.555  26.446   0.653
 O   19.003  25.309   0.692
 C   16.258  25.572   0.084
 C   15.759  25.336   1.493
 O   16.399  25.780   2.453
 O   14.731  24.675   1.645
 N   19.106  26.199   3.688
 C   18.957  25.372   4.876
 C   18.845  23.903   4.520
 O   18.660  23.054   5.417
 N   20.536  20.559   2.918
 C   21.779  19.912   2.496
 C   21.693  19.374   1.107
 O   22.642  19.502   0.361
 C   22.169  18.827   3.447
 C   22.272  19.337   4.844
 O   22.714  20.482   5.029
 O   21.836  18.647   5.778
 N   15.750  18.102  -3.440
 C   14.628  17.162  -3.514
 C   13.618  17.726  -4.436
 O   13.169  18.861  -4.263
 C   13.781  17.005  -2.245
 C   13.297  15.592  -2.184
 C   14.518  17.455  -1.007
 H   18.180  30.990   7.295
 H   18.510  28.835   5.249
 H   16.336  29.276   7.377
 H   17.778  28.186   7.516
 H   15.845  26.702   7.843
 H    4.436  24.871   8.195
 H    4.744  21.930   8.802
 H    4.143  22.632   7.335
 H   17.860  26.421  -2.023
 H   16.724  27.595   0.500
 H   16.724  24.663  -0.337
 H   15.363  25.845  -0.519
 H   16.737  25.171   3.109
 H   18.314  26.771   3.377
 H   18.015  25.631   5.391
 H   19.792  25.567   5.577
 H   19.976  20.073   3.597
 H   22.602  20.664   2.537
 H   23.175  18.459   3.144
 H   21.465  17.966   3.392
 H   21.492  17.752   5.634
 H   15.541  19.065  -3.172
 H   15.011  16.180  -3.836
 H   12.886  17.674  -2.203
 H   14.115  14.872  -2.046
 H   12.706  15.323  -3.086
 H   12.624  15.478  -1.307
 H   15.405  16.799  -0.936
 H   13.886  17.316  -0.103
 H   14.813  18.522  -1.068
 H   19.646  30.419   6.619
 H   17.295  30.415   3.850
 H    4.454  24.117   9.806
 H    6.887  21.864   7.822
 H   16.947  27.858  -1.864
 H   19.060  27.284   1.155
 H   20.034  26.347   3.290
 H   18.824  23.654   3.449
 H   20.197  21.395   2.443
 H   20.727  18.956   0.786
 H   16.715  17.829  -3.624
 H   13.269  17.060  -5.239
}

set {
basis aug-cc-pvtz
scf_type df
guess sad
DF_SCF_TYPE SYMM_JK
}

energy('HF')
--------------------------------------------------------------------------

  Memory set to  55.879 GiB by Python driver.

*** tstart() called on hex15
*** at Mon Mar  5 01:11:41 2018

   => Loading Basis Set <=

    Name: AUG-CC-PVTZ
    Role: ORBITAL
    Keyword: BASIS
    atoms 1, 9, 13, 21, 25, 33                                             entry N          line   281 file /theoryfs2/ds/schieber/Gits/mspsi4/objdir3/stage/usr/local/psi4/share/psi4/basis/aug-cc-pvtz.gbs 
    atoms 2-3, 5-6, 10-11, 14-15, 17-18, 22-23, 26-27, 29-30, 34-35, 37-39 entry C          line   235 file /theoryfs2/ds/schieber/Gits/mspsi4/objdir3/stage/usr/local/psi4/share/psi4/basis/aug-cc-pvtz.gbs 
    atoms 4, 7-8, 12, 16, 19-20, 24, 28, 31-32, 36                         entry O          line   327 file /theoryfs2/ds/schieber/Gits/mspsi4/objdir3/stage/usr/local/psi4/share/psi4/basis/aug-cc-pvtz.gbs 
    atoms 40-81                                                            entry H          line    36 file /theoryfs2/ds/schieber/Gits/mspsi4/objdir3/stage/usr/local/psi4/share/psi4/basis/aug-cc-pvtz.gbs 


         ---------------------------------------------------------
                                   SCF
            by Justin Turney, Rob Parrish, Andy Simmonett
                             and Daniel Smith
                              RHF Reference
                        6 Threads,  57220 MiB Core
         ---------------------------------------------------------

  ==> Geometry <==

    Molecular point group: c1
    Full point group: C1

    Geometry (in Angstrom), charge = 0, multiplicity = 1:

       Center              X                  Y                   Z               Mass       
    ------------   -----------------  -----------------  -----------------  -----------------
           N          2.162085654028     7.131922671342     3.830998506539    14.003074004780
           C          1.389085654028     6.203922671342     3.040998506539    12.000000000000
           C          0.481085654028     6.979922671342     2.089998506539    12.000000000000
           O         -0.620914345972     7.365922671342     2.440998506539    15.994914619560
           C          0.583085654028     5.329922671342     4.014998506539    12.000000000000
           C         -0.147914345972     4.200922671342     3.349998506539    12.000000000000
           O         -0.227914345972     4.145922671342     2.108998506539    15.994914619560
           O         -0.701914345972     3.383922671342     4.085998506539    15.994914619560
           N        -11.896914345972     0.729922671342     5.998998506539    14.003074004780
           C        -11.577914345972    -0.535077328658     5.348998506539    12.000000000000
           C        -10.198914345972    -0.592077328658     4.724998506539    12.000000000000
           O         -9.740914345972     0.376922671342     4.103998506539    15.994914619560
           N          0.943085654028     3.741922671342    -4.233001493461    14.003074004780
           C          0.763085654028     3.438922671342    -2.822001493461    12.000000000000
           C          2.091085654028     3.133922671342    -2.143001493461    12.000000000000
           O          2.539085654028     1.996922671342    -2.104001493461    15.994914619560
           C         -0.205914345972     2.259922671342    -2.712001493461    12.000000000000
           C         -0.704914345972     2.023922671342    -1.303001493461    12.000000000000
           O         -0.064914345972     2.467922671342    -0.343001493461    15.994914619560
           O         -1.732914345972     1.362922671342    -1.151001493461    15.994914619560
           N          2.642085654028     2.886922671342     0.891998506539    14.003074004780
           C          2.493085654028     2.059922671342     2.079998506539    12.000000000000
           C          2.381085654028     0.590922671342     1.723998506539    12.000000000000
           O          2.196085654028    -0.258077328658     2.620998506539    15.994914619560
           N          4.072085654028    -2.753077328658     0.121998506539    14.003074004780
           C          5.315085654028    -3.400077328658    -0.300001493461    12.000000000000
           C          5.229085654028    -3.938077328658    -1.689001493461    12.000000000000
           O          6.178085654028    -3.810077328658    -2.435001493461    15.994914619560
           C          5.705085654028    -4.485077328658     0.650998506539    12.000000000000
           C          5.808085654028    -3.975077328658     2.047998506539    12.000000000000
           O          6.250085654028    -2.830077328658     2.232998506539    15.994914619560
           O          5.372085654028    -4.665077328658     2.981998506539    15.994914619560
           N         -0.713914345972    -5.210077328658    -6.236001493461    14.003074004780
           C         -1.835914345972    -6.150077328658    -6.310001493461    12.000000000000
           C         -2.845914345972    -5.586077328658    -7.232001493461    12.000000000000
           O         -3.294914345972    -4.451077328658    -7.059001493461    15.994914619560
           C         -2.682914345972    -6.307077328658    -5.041001493461    12.000000000000
           C         -3.166914345972    -7.720077328658    -4.980001493461    12.000000000000
           C         -1.945914345972    -5.857077328658    -3.803001493461    12.000000000000
           H          1.716085654028     7.677922671342     4.498998506539     1.007825032070
           H          2.046085654028     5.522922671342     2.452998506539     1.007825032070
           H         -0.127914345972     5.963922671342     4.580998506539     1.007825032070
           H          1.314085654028     4.873922671342     4.719998506539     1.007825032070
           H         -0.618914345972     3.389922671342     5.046998506539     1.007825032070
           H        -12.027914345972     1.558922671342     5.398998506539     1.007825032070
           H        -11.719914345972    -1.382077328658     6.005998506539     1.007825032070
           H        -12.320914345972    -0.680077328658     4.538998506539     1.007825032070
           H          1.396085654028     3.108922671342    -4.819001493461     1.007825032070
           H          0.260085654028     4.282922671342    -2.296001493461     1.007825032070
           H          0.260085654028     1.350922671342    -3.133001493461     1.007825032070
           H         -1.100914345972     2.532922671342    -3.315001493461     1.007825032070
           H          0.273085654028     1.858922671342     0.312998506539     1.007825032070
           H          1.850085654028     3.458922671342     0.580998506539     1.007825032070
           H          1.551085654028     2.318922671342     2.594998506539     1.007825032070
           H          3.328085654028     2.254922671342     2.780998506539     1.007825032070
           H          3.512085654028    -3.239077328658     0.800998506539     1.007825032070
           H          6.138085654028    -2.648077328658    -0.259001493461     1.007825032070
           H          6.711085654028    -4.853077328658     0.347998506539     1.007825032070
           H          5.001085654028    -5.346077328658     0.595998506539     1.007825032070
           H          5.028085654028    -5.560077328658     2.837998506539     1.007825032070
           H         -0.922914345972    -4.247077328658    -5.968001493461     1.007825032070
           H         -1.452914345972    -7.132077328658    -6.632001493461     1.007825032070
           H         -3.577914345972    -5.638077328658    -4.999001493461     1.007825032070
           H         -2.348914345972    -8.440077328658    -4.842001493461     1.007825032070
           H         -3.757914345972    -7.989077328658    -5.882001493461     1.007825032070
           H         -3.839914345972    -7.834077328658    -4.103001493461     1.007825032070
           H         -1.058914345972    -6.513077328658    -3.732001493461     1.007825032070
           H         -2.577914345972    -5.996077328658    -2.899001493461     1.007825032070
           H         -1.650914345972    -4.790077328658    -3.864001493461     1.007825032070
           H          3.182085654028     7.106922671342     3.822998506539     1.007825032070
           H          0.831085654028     7.102922671342     1.053998506539     1.007825032070
           H        -12.009914345972     0.804922671342     7.009998506539     1.007825032070
           H         -9.576914345972    -1.448077328658     5.025998506539     1.007825032070
           H          0.483085654028     4.545922671342    -4.660001493461     1.007825032070
           H          2.596085654028     3.971922671342    -1.641001493461     1.007825032070
           H          3.570085654028     3.034922671342     0.493998506539     1.007825032070
           H          2.360085654028     0.341922671342     0.652998506539     1.007825032070
           H          3.733085654028    -1.917077328658    -0.353001493461     1.007825032070
           H          4.263085654028    -4.356077328658    -2.010001493461     1.007825032070
           H          0.251085654028    -5.483077328658    -6.420001493461     1.007825032070
           H         -3.194914345972    -6.252077328658    -8.035001493461     1.007825032070

  Running in c1 symmetry.

  Rotational constants: A =      0.00108  B =      0.00092  C =      0.00065 [cm^-1]
  Rotational constants: A =     32.29472  B =     27.57633  C =     19.58821 [MHz]
  Nuclear repulsion = 3942.786577156039129

  Charge       = 0
  Multiplicity = 1
  Electrons    = 306
  Nalpha       = 153
  Nbeta        = 153

  ==> Algorithm <==

  SCF Algorithm Type is DF.
  DIIS enabled.
  MOM disabled.
  Fractional occupation disabled.
  Guess Type is SAD.
  Energy threshold   = 1.00e-06
  Density threshold  = 1.00e-06
  Integral threshold = 0.00e+00

  ==> Primary Basis <==

  Basis Set: AUG-CC-PVTZ
    Blend: AUG-CC-PVTZ
    Number of shells: 924
    Number of basis function: 2760
    Number of Cartesian functions: 3195
    Spherical Harmonics?: true
    Max angular momentum: 3

   => Loading Basis Set <=

    Name: (AUG-CC-PVTZ AUX)
    Role: JKFIT
    Keyword: DF_BASIS_SCF
    atoms 1, 9, 13, 21, 25, 33                                             entry N          line   224 file /theoryfs2/ds/schieber/Gits/mspsi4/objdir3/stage/usr/local/psi4/share/psi4/basis/aug-cc-pvtz-jkfit.gbs 
    atoms 2-3, 5-6, 10-11, 14-15, 17-18, 22-23, 26-27, 29-30, 34-35, 37-39 entry C          line   162 file /theoryfs2/ds/schieber/Gits/mspsi4/objdir3/stage/usr/local/psi4/share/psi4/basis/aug-cc-pvtz-jkfit.gbs 
    atoms 4, 7-8, 12, 16, 19-20, 24, 28, 31-32, 36                         entry O          line   286 file /theoryfs2/ds/schieber/Gits/mspsi4/objdir3/stage/usr/local/psi4/share/psi4/basis/aug-cc-pvtz-jkfit.gbs 
    atoms 40-81                                                            entry H          line    70 file /theoryfs2/ds/schieber/Gits/mspsi4/objdir3/stage/usr/local/psi4/share/psi4/basis/aug-cc-pvtz-jkfit.gbs 

  ==> Pre-Iterations <==

   -------------------------------------------------------
    Irrep   Nso     Nmo     Nalpha   Nbeta   Ndocc  Nsocc
   -------------------------------------------------------
     A       2760    2760       0       0       0       0
   -------------------------------------------------------
    Total    2760    2760     153     153     153       0
   -------------------------------------------------------

  ==> Integral Setup <==


    ==> DF_Helper memory announcement <==
        Turning off in-core AOs.  DF_Helper needs at least (190.974GB), but it only got (45GB)

    ==> DF_Helper <==
      nao           = 2760
      naux          = 5988
      Scwarz cutoff = 1.000000E-12
      mem (doubles) = 5625000000
      nthreads      = 6
      Algorithm     = STORE
      AO_core?      = 0
      MO_core?      = 0
      hold metric   = 0
      metric power  = -5.000000E-01
  Fitting condition = 1.000000E-12
  Mask sparsity (%) = (58.683811)


  Minimum eigenvalue in the overlap matrix is 1.6499374637E-06.
  Using Symmetric Orthogonalization.

  SCF Guess: Superposition of Atomic Densities via on-the-fly atomic UHF.

  ==> Iterations <==

                           Total Energy        Delta E     RMS |[F,P]|

   @DF-RHF iter   0: -2059.15803398232765   -2.05916e+03   1.04499e-02 
   @DF-RHF iter   1: -2043.85423767004886    1.53038e+01   1.36813e-03 
   @DF-RHF iter   2: -2044.80341263053356   -9.49175e-01   9.35479e-04 DIIS
   @DF-RHF iter   3: -2045.21940412027016   -4.15991e-01   2.21398e-04 DIIS
   @DF-RHF iter   4: -2045.26821954391721   -4.88154e-02   7.47943e-05 DIIS
   @DF-RHF iter   5: -2045.27549316103432   -7.27362e-03   2.99039e-05 DIIS
   @DF-RHF iter   6: -2045.27736300374340   -1.86984e-03   1.40604e-05 DIIS
   @DF-RHF iter   7: -2045.27787798470695   -5.14981e-04   6.61924e-06 DIIS
   @DF-RHF iter   8: -2045.27799026563571   -1.12281e-04   3.08074e-06 DIIS
   @DF-RHF iter   9: -2045.27801604859792   -2.57830e-05   1.39606e-06 DIIS
   @DF-RHF iter  10: -2045.27802225980463   -6.21121e-06   6.30346e-07 DIIS
   @DF-RHF iter  11: -2045.27802355936046   -1.29956e-06   2.43979e-07 DIIS
   @DF-RHF iter  12: -2045.27802375274132   -1.93381e-07   1.11629e-07 DIIS

  ==> Post-Iterations <==

    Orbital Energies (a.u.)
    -----------------------

    Doubly Occupied:                                                      

       1A    -20.645134     2A    -20.638629     3A    -20.603161  
       4A    -20.568990     5A    -20.561326     6A    -20.561034  
       7A    -20.559586     8A    -20.556789     9A    -20.546968  
      10A    -20.540072    11A    -20.522557    12A    -20.515923  
      13A    -15.559761    14A    -15.552878    15A    -15.549131  
      16A    -15.545467    17A    -15.545277    18A    -15.537994  
      19A    -11.396250    20A    -11.384292    21A    -11.365652  
      22A    -11.344762    23A    -11.337704    24A    -11.336391  
      25A    -11.331830    26A    -11.328576    27A    -11.325712  
      28A    -11.296538    29A    -11.290113    30A    -11.281343  
      31A    -11.277553    32A    -11.274132    33A    -11.270429  
      34A    -11.266965    35A    -11.264342    36A    -11.237872  
      37A    -11.224595    38A    -11.222691    39A    -11.211859  
      40A     -1.527538    41A     -1.514309    42A     -1.498768  
      43A     -1.397508    44A     -1.394191    45A     -1.391789  
      46A     -1.373127    47A     -1.370518    48A     -1.368164  
      49A     -1.357113    50A     -1.341464    51A     -1.332190  
      52A     -1.214115    53A     -1.202071    54A     -1.194790  
      55A     -1.184992    56A     -1.180915    57A     -1.169285  
      58A     -1.078885    59A     -1.056836    60A     -1.055321  
      61A     -1.042900    62A     -0.967142    63A     -0.964463  
      64A     -0.963203    65A     -0.949615    66A     -0.941614  
      67A     -0.936747    68A     -0.928762    69A     -0.906009  
      70A     -0.891964    71A     -0.874400    72A     -0.809855  
      73A     -0.806051    74A     -0.802484    75A     -0.800124  
      76A     -0.795068    77A     -0.794374    78A     -0.759773  
      79A     -0.747407    80A     -0.734858    81A     -0.731434  
      82A     -0.718155    83A     -0.713099    84A     -0.707487  
      85A     -0.705380    86A     -0.698909    87A     -0.694522  
      88A     -0.692659    89A     -0.687530    90A     -0.684828  
      91A     -0.680784    92A     -0.667320    93A     -0.665725  
      94A     -0.661670    95A     -0.659113    96A     -0.658514  
      97A     -0.652920    98A     -0.648806    99A     -0.648774  
     100A     -0.643192   101A     -0.635860   102A     -0.635392  
     103A     -0.630637   104A     -0.629553   105A     -0.628892  
     106A     -0.625895   107A     -0.622959   108A     -0.621861  
     109A     -0.611360   110A     -0.609099   111A     -0.600822  
     112A     -0.589934   113A     -0.576915   114A     -0.572887  
     115A     -0.568441   116A     -0.566642   117A     -0.562078  
     118A     -0.557905   119A     -0.551150   120A     -0.548894  
     121A     -0.546887   122A     -0.534600   123A     -0.531135  
     124A     -0.529595   125A     -0.525531   126A     -0.520445  
     127A     -0.519789   128A     -0.514944   129A     -0.505658  
     130A     -0.502567   131A     -0.489368   132A     -0.487844  
     133A     -0.485151   134A     -0.475206   135A     -0.473575  
     136A     -0.461659   137A     -0.460552   138A     -0.455794  
     139A     -0.447597   140A     -0.444750   141A     -0.444119  
     142A     -0.443149   143A     -0.441866   144A     -0.439947  
     145A     -0.434185   146A     -0.434036   147A     -0.428576  
     148A     -0.385945   149A     -0.381602   150A     -0.377280  
     151A     -0.376778   152A     -0.369087   153A     -0.358967  

    Virtual:                                                              

     154A      0.014821   155A      0.015644   156A      0.021004  
     157A      0.025561   158A      0.027205   159A      0.028197  
     160A      0.034232   161A      0.034435   162A      0.035131  
     163A      0.037852   164A      0.039027   165A      0.041595  
     166A      0.042786   167A      0.044214   168A      0.045313  
     169A      0.047071   170A      0.048767   171A      0.050843  
     172A      0.052817   173A      0.054114   174A      0.055249  
     175A      0.058838   176A      0.059832   177A      0.061929  
     178A      0.063850   179A      0.066185   180A      0.066996  
     181A      0.068921   182A      0.071794   183A      0.072673  
     184A      0.075051   185A      0.076729   186A      0.077430  
     187A      0.078619   188A      0.081843   189A      0.081925  
     190A      0.085061   191A      0.086931   192A      0.090041  
     193A      0.091181   194A      0.092236   195A      0.092784  
     196A      0.096572   197A      0.097929   198A      0.098334  
     199A      0.099508   200A      0.100114   201A      0.100939  
     202A      0.104304   203A      0.105150   204A      0.106780  
     205A      0.109211   206A      0.109686   207A      0.110645  
     208A      0.112964   209A      0.113765   210A      0.115900  
     211A      0.116448   212A      0.117869   213A      0.118514  
     214A      0.119775   215A      0.121617   216A      0.123119  
     217A      0.125787   218A      0.125911   219A      0.126751  
     220A      0.128467   221A      0.129772   222A      0.130886  
     223A      0.131327   224A      0.132871   225A      0.133560  
     226A      0.134228   227A      0.135092   228A      0.136210  
     229A      0.136434   230A      0.137098   231A      0.138122  
     232A      0.140364   233A      0.140786   234A      0.143704  
     235A      0.144720   236A      0.145094   237A      0.146312  
     238A      0.147251   239A      0.148781   240A      0.149276  
     241A      0.150359   242A      0.150986   243A      0.153035  
     244A      0.156079   245A      0.156422   246A      0.156620  
     247A      0.157410   248A      0.160019   249A      0.161111  
     250A      0.163319   251A      0.164382   252A      0.165385  
     253A      0.167197   254A      0.168270   255A      0.169726  
     256A      0.170336   257A      0.171736   258A      0.172869  
     259A      0.174435   260A      0.175151   261A      0.177874  
     262A      0.178136   263A      0.179875   264A      0.180335  
     265A      0.182185   266A      0.183521   267A      0.184427  
     268A      0.186087   269A      0.187027   270A      0.187567  
     271A      0.188415   272A      0.189194   273A      0.190608  
     274A      0.191578   275A      0.196871   276A      0.198429  
     277A      0.199094   278A      0.201247   279A      0.201733  
     280A      0.202869   281A      0.204234   282A      0.205379  
     283A      0.206934   284A      0.210760   285A      0.211324  
     286A      0.213760   287A      0.215118   288A      0.216263  
     289A      0.216765   290A      0.218304   291A      0.221151  
     292A      0.222314   293A      0.222881   294A      0.224517  
     295A      0.227495   296A      0.227952   297A      0.231150  
     298A      0.232442   299A      0.234834   300A      0.235971  
     301A      0.236930   302A      0.238802   303A      0.239677  
     304A      0.241544   305A      0.242530   306A      0.244811  
     307A      0.247095   308A      0.248359   309A      0.250436  
     310A      0.251052   311A      0.251730   312A      0.252925  
     313A      0.254938   314A      0.257510   315A      0.259393  
     316A      0.260526   317A      0.261695   318A      0.264251  
     319A      0.265667   320A      0.267005   321A      0.269014  
     322A      0.269551   323A      0.270954   324A      0.272417  
     325A      0.274061   326A      0.274257   327A      0.275497  
     328A      0.278230   329A      0.279595   330A      0.280939  
     331A      0.281446   332A      0.283887   333A      0.284914  
     334A      0.286437   335A      0.288200   336A      0.289701  
     337A      0.290955   338A      0.291975   339A      0.293239  
     340A      0.295389   341A      0.296076   342A      0.297247  
     343A      0.298419   344A      0.298846   345A      0.300933  
     346A      0.302202   347A      0.303533   348A      0.305207  
     349A      0.305451   350A      0.306541   351A      0.307085  
     352A      0.308288   353A      0.309601   354A      0.310914  
     355A      0.313606   356A      0.314503   357A      0.315977  
     358A      0.317219   359A      0.318161   360A      0.320429  
     361A      0.320621   362A      0.322089   363A      0.323885  
     364A      0.324328   365A      0.326581   366A      0.327198  
     367A      0.327573   368A      0.329349   369A      0.329695  
     370A      0.330615   371A      0.331826   372A      0.333194  
     373A      0.335433   374A      0.337345   375A      0.338812  
     376A      0.340030   377A      0.341077   378A      0.341750  
     379A      0.342885   380A      0.344916   381A      0.345924  
     382A      0.346990   383A      0.347740   384A      0.348825  
     385A      0.351025   386A      0.352726   387A      0.353965  
     388A      0.354609   389A      0.355813   390A      0.357798  
     391A      0.358254   392A      0.359620   393A      0.360042  
     394A      0.360651   395A      0.361599   396A      0.363430  
     397A      0.365530   398A      0.366129   399A      0.366683  
     400A      0.367674   401A      0.368748   402A      0.370602  
     403A      0.371401   404A      0.372324   405A      0.373383  
     406A      0.374009   407A      0.375808   408A      0.376873  
     409A      0.377755   410A      0.378847   411A      0.379603  
     412A      0.380662   413A      0.382940   414A      0.383581  
     415A      0.384306   416A      0.385261   417A      0.386830  
     418A      0.389028   419A      0.389773   420A      0.391413  
     421A      0.392513   422A      0.393310   423A      0.394912  
     424A      0.397007   425A      0.397344   426A      0.399154  
     427A      0.400424   428A      0.403614   429A      0.404010  
     430A      0.405262   431A      0.406022   432A      0.407912  
     433A      0.408575   434A      0.409100   435A      0.413057  
     436A      0.413398   437A      0.414544   438A      0.415005  
     439A      0.416452   440A      0.417814   441A      0.419579  
     442A      0.420505   443A      0.420891   444A      0.422282  
     445A      0.423485   446A      0.425868   447A      0.427264  
     448A      0.427664   449A      0.428335   450A      0.429717  
     451A      0.430741   452A      0.432676   453A      0.433953  
     454A      0.434990   455A      0.435659   456A      0.437789  
     457A      0.438391   458A      0.440181   459A      0.441560  
     460A      0.442777   461A      0.444888   462A      0.445084  
     463A      0.446127   464A      0.447241   465A      0.448433  
     466A      0.449458   467A      0.449964   468A      0.451404  
     469A      0.452443   470A      0.454802   471A      0.455891  
     472A      0.459270   473A      0.460172   474A      0.461002  
     475A      0.462775   476A      0.463482   477A      0.464256  
     478A      0.466570   479A      0.468170   480A      0.468828  
     481A      0.469150   482A      0.470275   483A      0.471567  
     484A      0.473674   485A      0.474124   486A      0.475680  
     487A      0.477097   488A      0.478425   489A      0.479579  
     490A      0.480081   491A      0.482190   492A      0.485285  
     493A      0.485502   494A      0.486944   495A      0.487794  
     496A      0.490404   497A      0.490617   498A      0.492427  
     499A      0.494802   500A      0.496008   501A      0.497287  
     502A      0.497826   503A      0.498713   504A      0.500119  
     505A      0.501510   506A      0.503323   507A      0.504442  
     508A      0.505229   509A      0.506052   510A      0.506814  
     511A      0.507752   512A      0.509635   513A      0.510493  
     514A      0.511051   515A      0.513808   516A      0.514571  
     517A      0.515561   518A      0.516666   519A      0.517029  
     520A      0.518579   521A      0.519280   522A      0.521597  
     523A      0.523195   524A      0.524947   525A      0.525935  
     526A      0.526920   527A      0.527776   528A      0.528799  
     529A      0.529807   530A      0.532011   531A      0.533674  
     532A      0.536131   533A      0.536974   534A      0.538551  
     535A      0.539887   536A      0.540295   537A      0.541654  
     538A      0.542741   539A      0.542829   540A      0.545012  
     541A      0.546657   542A      0.547734   543A      0.548421  
     544A      0.549733   545A      0.553669   546A      0.554200  
     547A      0.555022   548A      0.555933   549A      0.558114  
     550A      0.558729   551A      0.561020   552A      0.563647  
     553A      0.565842   554A      0.566250   555A      0.567822  
     556A      0.568427   557A      0.571769   558A      0.572847  
     559A      0.574278   560A      0.577689   561A      0.578974  
     562A      0.580612   563A      0.583147   564A      0.583479  
     565A      0.584816   566A      0.585209   567A      0.585878  
     568A      0.588374   569A      0.590211   570A      0.590754  
     571A      0.593279   572A      0.594200   573A      0.597871  
     574A      0.599139   575A      0.600485   576A      0.601217  
     577A      0.602862   578A      0.604100   579A      0.606584  
     580A      0.607751   581A      0.607847   582A      0.609097  
     583A      0.610390   584A      0.611574   585A      0.613376  
     586A      0.615170   587A      0.617001   588A      0.618883  
     589A      0.620984   590A      0.622316   591A      0.623396  
     592A      0.624290   593A      0.625560   594A      0.626440  
     595A      0.628656   596A      0.631189   597A      0.631897  
     598A      0.634807   599A      0.636002   600A      0.637318  
     601A      0.639860   602A      0.640933   603A      0.643765  
     604A      0.644800   605A      0.645620   606A      0.646554  
     607A      0.647544   608A      0.648398   609A      0.651888  
     610A      0.652969   611A      0.654051   612A      0.655136  
     613A      0.656736   614A      0.658562   615A      0.660744  
     616A      0.661926   617A      0.663157   618A      0.663323  
     619A      0.664506   620A      0.665305   621A      0.665699  
     622A      0.667747   623A      0.668240   624A      0.671284  
     625A      0.674606   626A      0.675112   627A      0.677419  
     628A      0.678359   629A      0.679811   630A      0.680200  
     631A      0.680567   632A      0.680884   633A      0.686313  
     634A      0.686781   635A      0.688008   636A      0.692134  
     637A      0.692946   638A      0.695592   639A      0.696332  
     640A      0.698627   641A      0.700651   642A      0.702686  
     643A      0.704007   644A      0.705121   645A      0.705717  
     646A      0.707933   647A      0.709433   648A      0.712340  
     649A      0.713768   650A      0.714774   651A      0.715804  
     652A      0.717539   653A      0.720140   654A      0.722191  
     655A      0.723488   656A      0.726967   657A      0.728024  
     658A      0.728997   659A      0.730050   660A      0.732242  
     661A      0.735428   662A      0.736889   663A      0.738743  
     664A      0.741167   665A      0.742574   666A      0.745447  
     667A      0.745972   668A      0.748446   669A      0.749206  
     670A      0.754109   671A      0.757581   672A      0.759674  
     673A      0.760816   674A      0.761491   675A      0.766502  
     676A      0.768423   677A      0.769817   678A      0.771033  
     679A      0.772573   680A      0.774154   681A      0.775962  
     682A      0.778042   683A      0.781095   684A      0.782505  
     685A      0.783611   686A      0.787534   687A      0.789693  
     688A      0.793481   689A      0.794299   690A      0.796357  
     691A      0.797230   692A      0.798373   693A      0.799500  
     694A      0.803323   695A      0.803690   696A      0.805018  
     697A      0.806647   698A      0.809614   699A      0.810092  
     700A      0.813064   701A      0.814256   702A      0.815401  
     703A      0.817620   704A      0.818762   705A      0.821613  
     706A      0.822163   707A      0.823549   708A      0.826856  
     709A      0.827643   710A      0.828473   711A      0.830083  
     712A      0.831285   713A      0.832500   714A      0.834047  
     715A      0.835214   716A      0.837593   717A      0.840392  
     718A      0.842274   719A      0.846574   720A      0.847677  
     721A      0.849594   722A      0.850609   723A      0.851989  
     724A      0.852773   725A      0.855392   726A      0.856944  
     727A      0.859420   728A      0.860445   729A      0.863842  
     730A      0.865806   731A      0.867245   732A      0.868139  
     733A      0.868903   734A      0.870053   735A      0.871911  
     736A      0.872600   737A      0.873525   738A      0.874039  
     739A      0.875355   740A      0.878176   741A      0.878962  
     742A      0.881228   743A      0.885048   744A      0.885849  
     745A      0.888097   746A      0.889415   747A      0.891838  
     748A      0.892473   749A      0.894605   750A      0.896356  
     751A      0.899852   752A      0.901612   753A      0.901782  
     754A      0.905137   755A      0.908228   756A      0.908371  
     757A      0.909006   758A      0.912195   759A      0.912368  
     760A      0.913623   761A      0.916156   762A      0.916811  
     763A      0.920591   764A      0.922056   765A      0.922651  
     766A      0.923017   767A      0.925765   768A      0.926990  
     769A      0.928355   770A      0.930409   771A      0.933902  
     772A      0.935246   773A      0.936080   774A      0.937291  
     775A      0.937935   776A      0.938995   777A      0.939966  
     778A      0.940460   779A      0.942058   780A      0.943359  
     781A      0.943942   782A      0.945162   783A      0.945514  
     784A      0.948372   785A      0.949198   786A      0.951734  
     787A      0.952961   788A      0.955511   789A      0.956832  
     790A      0.958557   791A      0.962241   792A      0.963729  
     793A      0.965343   794A      0.967553   795A      0.968497  
     796A      0.970873   797A      0.971924   798A      0.972069  
     799A      0.972559   800A      0.974206   801A      0.974968  
     802A      0.975501   803A      0.978765   804A      0.980268  
     805A      0.981428   806A      0.982462   807A      0.984750  
     808A      0.984861   809A      0.986335   810A      0.987659  
     811A      0.989265   812A      0.990996   813A      0.992471  
     814A      0.993738   815A      0.995022   816A      0.995493  
     817A      0.996482   818A      0.997156   819A      1.000254  
     820A      1.000926   821A      1.001119   822A      1.001806  
     823A      1.004456   824A      1.005334   825A      1.007780  
     826A      1.009586   827A      1.010549   828A      1.010996  
     829A      1.012650   830A      1.014011   831A      1.014798  
     832A      1.018375   833A      1.019477   834A      1.020318  
     835A      1.022188   836A      1.023569   837A      1.025686  
     838A      1.026474   839A      1.028440   840A      1.032377  
     841A      1.032788   842A      1.034919   843A      1.035615  
     844A      1.038055   845A      1.039326   846A      1.040330  
     847A      1.042923   848A      1.043118   849A      1.043308  
     850A      1.045627   851A      1.047866   852A      1.048829  
     853A      1.050001   854A      1.051742   855A      1.052968  
     856A      1.053067   857A      1.053856   858A      1.054048  
     859A      1.056724   860A      1.058882   861A      1.060131  
     862A      1.062863   863A      1.064272   864A      1.065926  
     865A      1.067612   866A      1.069124   867A      1.070974  
     868A      1.071791   869A      1.073533   870A      1.077520  
     871A      1.078764   872A      1.079893   873A      1.083913  
     874A      1.084453   875A      1.085288   876A      1.085512  
     877A      1.086138   878A      1.087600   879A      1.090410  
     880A      1.091247   881A      1.092756   882A      1.093852  
     883A      1.095427   884A      1.095857   885A      1.097987  
     886A      1.099722   887A      1.102633   888A      1.104100  
     889A      1.107070   890A      1.108528   891A      1.110285  
     892A      1.112962   893A      1.113536   894A      1.114199  
     895A      1.115635   896A      1.118288   897A      1.120479  
     898A      1.120632   899A      1.122010   900A      1.123833  
     901A      1.126080   902A      1.127593   903A      1.130754  
     904A      1.131343   905A      1.134007   906A      1.134575  
     907A      1.137164   908A      1.139447   909A      1.142196  
     910A      1.144011   911A      1.145223   912A      1.145745  
     913A      1.146828   914A      1.147476   915A      1.148607  
     916A      1.149806   917A      1.150269   918A      1.151628  
     919A      1.153317   920A      1.154631   921A      1.158936  
     922A      1.162258   923A      1.162535   924A      1.163448  
     925A      1.164174   926A      1.165196   927A      1.165752  
     928A      1.167615   929A      1.168267   930A      1.170611  
     931A      1.172589   932A      1.174240   933A      1.175022  
     934A      1.176848   935A      1.179422   936A      1.181368  
     937A      1.182602   938A      1.183692   939A      1.184941  
     940A      1.186311   941A      1.187860   942A      1.190493  
     943A      1.193655   944A      1.194254   945A      1.195750  
     946A      1.198058   947A      1.199933   948A      1.202883  
     949A      1.204592   950A      1.205282   951A      1.210151  
     952A      1.210613   953A      1.212030   954A      1.213196  
     955A      1.213977   956A      1.215255   957A      1.216670  
     958A      1.217846   959A      1.219123   960A      1.220748  
     961A      1.223330   962A      1.224157   963A      1.224338  
     964A      1.225803   965A      1.227832   966A      1.230827  
     967A      1.231278   968A      1.233729   969A      1.233811  
     970A      1.237154   971A      1.237743   972A      1.239847  
     973A      1.240991   974A      1.244411   975A      1.244968  
     976A      1.245592   977A      1.246812   978A      1.250728  
     979A      1.252175   980A      1.255136   981A      1.255895  
     982A      1.256659   983A      1.259487   984A      1.261218  
     985A      1.262537   986A      1.262633   987A      1.264968  
     988A      1.265323   989A      1.268948   990A      1.271332  
     991A      1.273022   992A      1.275917   993A      1.276766  
     994A      1.277715   995A      1.278077   996A      1.281638  
     997A      1.283222   998A      1.285268   999A      1.286566  
    1000A      1.287916  1001A      1.289158  1002A      1.290138  
    1003A      1.291409  1004A      1.294946  1005A      1.296627  
    1006A      1.298578  1007A      1.299026  1008A      1.299869  
    1009A      1.304862  1010A      1.307368  1011A      1.309232  
    1012A      1.311747  1013A      1.312769  1014A      1.314475  
    1015A      1.316790  1016A      1.317326  1017A      1.317801  
    1018A      1.320724  1019A      1.324659  1020A      1.326134  
    1021A      1.327317  1022A      1.328701  1023A      1.331941  
    1024A      1.336122  1025A      1.337791  1026A      1.338357  
    1027A      1.340254  1028A      1.345413  1029A      1.346021  
    1030A      1.348151  1031A      1.349374  1032A      1.351026  
    1033A      1.353068  1034A      1.353983  1035A      1.356311  
    1036A      1.361881  1037A      1.362034  1038A      1.366290  
    1039A      1.366560  1040A      1.367923  1041A      1.368710  
    1042A      1.370818  1043A      1.372077  1044A      1.373386  
    1045A      1.378380  1046A      1.380836  1047A      1.380844  
    1048A      1.382718  1049A      1.384550  1050A      1.388558  
    1051A      1.390052  1052A      1.390789  1053A      1.393924  
    1054A      1.396695  1055A      1.397347  1056A      1.398598  
    1057A      1.402032  1058A      1.402938  1059A      1.404023  
    1060A      1.406285  1061A      1.407739  1062A      1.411539  
    1063A      1.413050  1064A      1.415765  1065A      1.417446  
    1066A      1.418234  1067A      1.420167  1068A      1.423950  
    1069A      1.425569  1070A      1.427405  1071A      1.427969  
    1072A      1.432763  1073A      1.435385  1074A      1.435806  
    1075A      1.438366  1076A      1.438660  1077A      1.441618  
    1078A      1.443056  1079A      1.445051  1080A      1.446642  
    1081A      1.448213  1082A      1.449766  1083A      1.452138  
    1084A      1.455425  1085A      1.457109  1086A      1.458343  
    1087A      1.461735  1088A      1.462677  1089A      1.464259  
    1090A      1.465771  1091A      1.469418  1092A      1.471201  
    1093A      1.472765  1094A      1.473775  1095A      1.473933  
    1096A      1.475772  1097A      1.475894  1098A      1.477510  
    1099A      1.481623  1100A      1.484789  1101A      1.487564  
    1102A      1.490563  1103A      1.491202  1104A      1.492952  
    1105A      1.496505  1106A      1.496780  1107A      1.499797  
    1108A      1.500582  1109A      1.501309  1110A      1.501671  
    1111A      1.504482  1112A      1.506475  1113A      1.507588  
    1114A      1.512062  1115A      1.513268  1116A      1.515598  
    1117A      1.517176  1118A      1.517419  1119A      1.520139  
    1120A      1.520856  1121A      1.524440  1122A      1.526967  
    1123A      1.529643  1124A      1.530538  1125A      1.531774  
    1126A      1.533361  1127A      1.536924  1128A      1.537612  
    1129A      1.538602  1130A      1.539032  1131A      1.541929  
    1132A      1.545766  1133A      1.546870  1134A      1.551300  
    1135A      1.551498  1136A      1.553197  1137A      1.555299  
    1138A      1.557458  1139A      1.557999  1140A      1.561822  
    1141A      1.563026  1142A      1.565566  1143A      1.565871  
    1144A      1.567317  1145A      1.570460  1146A      1.571608  
    1147A      1.572359  1148A      1.573692  1149A      1.575861  
    1150A      1.577130  1151A      1.580862  1152A      1.582066  
    1153A      1.583412  1154A      1.584464  1155A      1.587386  
    1156A      1.587919  1157A      1.588471  1158A      1.591316  
    1159A      1.593080  1160A      1.595189  1161A      1.597828  
    1162A      1.600054  1163A      1.600633  1164A      1.602421  
    1165A      1.604764  1166A      1.605381  1167A      1.606582  
    1168A      1.607248  1169A      1.611347  1170A      1.612876  
    1171A      1.615685  1172A      1.618281  1173A      1.621025  
    1174A      1.622852  1175A      1.626173  1176A      1.626457  
    1177A      1.629819  1178A      1.632142  1179A      1.634563  
    1180A      1.639840  1181A      1.641853  1182A      1.642235  
    1183A      1.644218  1184A      1.644378  1185A      1.646922  
    1186A      1.650577  1187A      1.651714  1188A      1.654379  
    1189A      1.655761  1190A      1.656993  1191A      1.659297  
    1192A      1.659839  1193A      1.660952  1194A      1.663861  
    1195A      1.666149  1196A      1.667856  1197A      1.670206  
    1198A      1.670682  1199A      1.676812  1200A      1.677425  
    1201A      1.678489  1202A      1.683220  1203A      1.684450  
    1204A      1.689931  1205A      1.690945  1206A      1.693556  
    1207A      1.697957  1208A      1.698697  1209A      1.701385  
    1210A      1.703690  1211A      1.705217  1212A      1.706098  
    1213A      1.706557  1214A      1.707787  1215A      1.711443  
    1216A      1.711891  1217A      1.715526  1218A      1.718233  
    1219A      1.720740  1220A      1.721877  1221A      1.725633  
    1222A      1.726317  1223A      1.728804  1224A      1.730777  
    1225A      1.731234  1226A      1.732967  1227A      1.734533  
    1228A      1.735852  1229A      1.737604  1230A      1.739606  
    1231A      1.745046  1232A      1.745193  1233A      1.745940  
    1234A      1.746736  1235A      1.749475  1236A      1.750076  
    1237A      1.750924  1238A      1.755295  1239A      1.757975  
    1240A      1.762543  1241A      1.763818  1242A      1.765967  
    1243A      1.767631  1244A      1.769964  1245A      1.773314  
    1246A      1.774057  1247A      1.775086  1248A      1.776632  
    1249A      1.777026  1250A      1.778245  1251A      1.779598  
    1252A      1.784523  1253A      1.786172  1254A      1.788363  
    1255A      1.792045  1256A      1.793873  1257A      1.796167  
    1258A      1.799517  1259A      1.800541  1260A      1.801998  
    1261A      1.805393  1262A      1.806601  1263A      1.809817  
    1264A      1.810244  1265A      1.812521  1266A      1.814758  
    1267A      1.816049  1268A      1.819888  1269A      1.822171  
    1270A      1.824262  1271A      1.825312  1272A      1.830980  
    1273A      1.832850  1274A      1.836238  1275A      1.837887  
    1276A      1.839322  1277A      1.841306  1278A      1.841364  
    1279A      1.843528  1280A      1.847808  1281A      1.849078  
    1282A      1.850962  1283A      1.853389  1284A      1.856408  
    1285A      1.861055  1286A      1.861686  1287A      1.862201  
    1288A      1.864323  1289A      1.865051  1290A      1.870441  
    1291A      1.872448  1292A      1.874580  1293A      1.874977  
    1294A      1.879340  1295A      1.879501  1296A      1.880208  
    1297A      1.884057  1298A      1.886880  1299A      1.887810  
    1300A      1.890846  1301A      1.891298  1302A      1.892977  
    1303A      1.895865  1304A      1.897418  1305A      1.899782  
    1306A      1.902019  1307A      1.902588  1308A      1.904947  
    1309A      1.908545  1310A      1.912123  1311A      1.915495  
    1312A      1.918058  1313A      1.918928  1314A      1.922102  
    1315A      1.924384  1316A      1.927444  1317A      1.928621  
    1318A      1.931781  1319A      1.932277  1320A      1.933375  
    1321A      1.935901  1322A      1.938152  1323A      1.941359  
    1324A      1.945122  1325A      1.945955  1326A      1.947123  
    1327A      1.948863  1328A      1.950714  1329A      1.953523  
    1330A      1.958761  1331A      1.959395  1332A      1.960878  
    1333A      1.964996  1334A      1.965807  1335A      1.970719  
    1336A      1.972422  1337A      1.976925  1338A      1.977289  
    1339A      1.979046  1340A      1.979669  1341A      1.980531  
    1342A      1.982774  1343A      1.985569  1344A      1.986479  
    1345A      1.987817  1346A      1.989933  1347A      1.993906  
    1348A      1.995574  1349A      1.999391  1350A      2.004308  
    1351A      2.006310  1352A      2.008755  1353A      2.010445  
    1354A      2.013445  1355A      2.014013  1356A      2.016106  
    1357A      2.022847  1358A      2.023669  1359A      2.028149  
    1360A      2.031937  1361A      2.035017  1362A      2.036857  
    1363A      2.039607  1364A      2.042184  1365A      2.044794  
    1366A      2.048397  1367A      2.049335  1368A      2.052856  
    1369A      2.055934  1370A      2.057944  1371A      2.061855  
    1372A      2.064520  1373A      2.066538  1374A      2.067429  
    1375A      2.067765  1376A      2.068198  1377A      2.070238  
    1378A      2.071161  1379A      2.074156  1380A      2.076071  
    1381A      2.077339  1382A      2.079674  1383A      2.087472  
    1384A      2.089171  1385A      2.089405  1386A      2.091561  
    1387A      2.092917  1388A      2.096152  1389A      2.101847  
    1390A      2.103953  1391A      2.106254  1392A      2.107387  
    1393A      2.112998  1394A      2.114338  1395A      2.120698  
    1396A      2.122188  1397A      2.125945  1398A      2.128793  
    1399A      2.129120  1400A      2.131815  1401A      2.133869  
    1402A      2.138304  1403A      2.144818  1404A      2.145319  
    1405A      2.145333  1406A      2.147805  1407A      2.148547  
    1408A      2.152426  1409A      2.155881  1410A      2.161095  
    1411A      2.162764  1412A      2.164538  1413A      2.169012  
    1414A      2.173498  1415A      2.176552  1416A      2.179606  
    1417A      2.181624  1418A      2.182847  1419A      2.185226  
    1420A      2.185876  1421A      2.189682  1422A      2.192858  
    1423A      2.195671  1424A      2.198186  1425A      2.201413  
    1426A      2.205699  1427A      2.210363  1428A      2.213518  
    1429A      2.215066  1430A      2.219068  1431A      2.222448  
    1432A      2.224306  1433A      2.227909  1434A      2.229538  
    1435A      2.230587  1436A      2.237109  1437A      2.239271  
    1438A      2.240083  1439A      2.244097  1440A      2.245059  
    1441A      2.245799  1442A      2.250915  1443A      2.252167  
    1444A      2.256262  1445A      2.259479  1446A      2.261392  
    1447A      2.264863  1448A      2.267398  1449A      2.268827  
    1450A      2.275831  1451A      2.278039  1452A      2.280255  
    1453A      2.281577  1454A      2.283877  1455A      2.285725  
    1456A      2.292040  1457A      2.297696  1458A      2.301303  
    1459A      2.304758  1460A      2.309083  1461A      2.309255  
    1462A      2.312182  1463A      2.315931  1464A      2.318151  
    1465A      2.320262  1466A      2.320805  1467A      2.321651  
    1468A      2.325796  1469A      2.329645  1470A      2.332323  
    1471A      2.334534  1472A      2.335558  1473A      2.338055  
    1474A      2.343444  1475A      2.351180  1476A      2.351725  
    1477A      2.354205  1478A      2.359984  1479A      2.360595  
    1480A      2.361407  1481A      2.365260  1482A      2.367210  
    1483A      2.368023  1484A      2.369827  1485A      2.382036  
    1486A      2.384264  1487A      2.386059  1488A      2.386200  
    1489A      2.390220  1490A      2.393165  1491A      2.394762  
    1492A      2.398024  1493A      2.402176  1494A      2.407717  
    1495A      2.408614  1496A      2.412639  1497A      2.413190  
    1498A      2.413327  1499A      2.418903  1500A      2.423330  
    1501A      2.425449  1502A      2.431692  1503A      2.433713  
    1504A      2.436616  1505A      2.438743  1506A      2.439939  
    1507A      2.441613  1508A      2.442561  1509A      2.447171  
    1510A      2.450344  1511A      2.453335  1512A      2.454738  
    1513A      2.456348  1514A      2.458807  1515A      2.461813  
    1516A      2.465420  1517A      2.469783  1518A      2.470991  
    1519A      2.474416  1520A      2.475870  1521A      2.479840  
    1522A      2.483801  1523A      2.485844  1524A      2.491778  
    1525A      2.495871  1526A      2.498796  1527A      2.500757  
    1528A      2.502386  1529A      2.503925  1530A      2.506370  
    1531A      2.507275  1532A      2.509114  1533A      2.514024  
    1534A      2.518235  1535A      2.524084  1536A      2.525612  
    1537A      2.529403  1538A      2.530495  1539A      2.534844  
    1540A      2.535723  1541A      2.536660  1542A      2.537368  
    1543A      2.540818  1544A      2.543669  1545A      2.551151  
    1546A      2.555263  1547A      2.556427  1548A      2.559086  
    1549A      2.560666  1550A      2.562891  1551A      2.565766  
    1552A      2.567104  1553A      2.569507  1554A      2.572802  
    1555A      2.574990  1556A      2.576232  1557A      2.580777  
    1558A      2.580879  1559A      2.582999  1560A      2.584758  
    1561A      2.591823  1562A      2.592663  1563A      2.594490  
    1564A      2.598673  1565A      2.602762  1566A      2.607377  
    1567A      2.609905  1568A      2.613300  1569A      2.614872  
    1570A      2.622930  1571A      2.624578  1572A      2.627058  
    1573A      2.627442  1574A      2.628735  1575A      2.629335  
    1576A      2.633961  1577A      2.636390  1578A      2.638836  
    1579A      2.640749  1580A      2.644335  1581A      2.646526  
    1582A      2.648833  1583A      2.652677  1584A      2.656738  
    1585A      2.660881  1586A      2.662337  1587A      2.668678  
    1588A      2.668998  1589A      2.671133  1590A      2.671564  
    1591A      2.675377  1592A      2.677304  1593A      2.679887  
    1594A      2.689939  1595A      2.694760  1596A      2.696207  
    1597A      2.696590  1598A      2.699046  1599A      2.700374  
    1600A      2.706716  1601A      2.708809  1602A      2.709929  
    1603A      2.714732  1604A      2.716322  1605A      2.721151  
    1606A      2.724180  1607A      2.730331  1608A      2.732807  
    1609A      2.733821  1610A      2.734474  1611A      2.739246  
    1612A      2.740759  1613A      2.742710  1614A      2.747968  
    1615A      2.752322  1616A      2.755857  1617A      2.758371  
    1618A      2.760275  1619A      2.765268  1620A      2.769665  
    1621A      2.771608  1622A      2.773806  1623A      2.779086  
    1624A      2.780580  1625A      2.784033  1626A      2.784848  
    1627A      2.791294  1628A      2.792860  1629A      2.797763  
    1630A      2.799059  1631A      2.805177  1632A      2.809305  
    1633A      2.810658  1634A      2.812086  1635A      2.817036  
    1636A      2.820399  1637A      2.825374  1638A      2.825775  
    1639A      2.830241  1640A      2.833318  1641A      2.833768  
    1642A      2.836666  1643A      2.840808  1644A      2.845128  
    1645A      2.848108  1646A      2.853323  1647A      2.858682  
    1648A      2.862436  1649A      2.864870  1650A      2.868581  
    1651A      2.869954  1652A      2.874322  1653A      2.875656  
    1654A      2.884041  1655A      2.889981  1656A      2.890841  
    1657A      2.892082  1658A      2.895985  1659A      2.905446  
    1660A      2.909026  1661A      2.909983  1662A      2.911301  
    1663A      2.915636  1664A      2.919598  1665A      2.921427  
    1666A      2.924889  1667A      2.926083  1668A      2.930391  
    1669A      2.932994  1670A      2.934016  1671A      2.940803  
    1672A      2.941554  1673A      2.949370  1674A      2.950961  
    1675A      2.958977  1676A      2.959788  1677A      2.962234  
    1678A      2.964656  1679A      2.969166  1680A      2.974825  
    1681A      2.979467  1682A      2.983381  1683A      2.988824  
    1684A      2.992700  1685A      2.997128  1686A      3.002585  
    1687A      3.005987  1688A      3.011088  1689A      3.017277  
    1690A      3.026050  1691A      3.031127  1692A      3.034881  
    1693A      3.037086  1694A      3.039640  1695A      3.040727  
    1696A      3.045483  1697A      3.048587  1698A      3.052115  
    1699A      3.063033  1700A      3.065434  1701A      3.068461  
    1702A      3.071714  1703A      3.080084  1704A      3.086628  
    1705A      3.090378  1706A      3.093543  1707A      3.093783  
    1708A      3.099677  1709A      3.101786  1710A      3.107435  
    1711A      3.116141  1712A      3.125022  1713A      3.129338  
    1714A      3.131686  1715A      3.132396  1716A      3.139939  
    1717A      3.140188  1718A      3.143410  1719A      3.147126  
    1720A      3.154195  1721A      3.158394  1722A      3.159656  
    1723A      3.163179  1724A      3.175122  1725A      3.183634  
    1726A      3.185695  1727A      3.193095  1728A      3.195397  
    1729A      3.196954  1730A      3.202846  1731A      3.209779  
    1732A      3.226861  1733A      3.232369  1734A      3.243666  
    1735A      3.246910  1736A      3.250004  1737A      3.250917  
    1738A      3.253685  1739A      3.268582  1740A      3.272789  
    1741A      3.289143  1742A      3.297935  1743A      3.301276  
    1744A      3.302997  1745A      3.305624  1746A      3.313334  
    1747A      3.315271  1748A      3.333592  1749A      3.340552  
    1750A      3.350110  1751A      3.353184  1752A      3.360303  
    1753A      3.363778  1754A      3.365225  1755A      3.372569  
    1756A      3.380802  1757A      3.383429  1758A      3.392064  
    1759A      3.399456  1760A      3.404865  1761A      3.408366  
    1762A      3.409632  1763A      3.415962  1764A      3.423915  
    1765A      3.428217  1766A      3.430379  1767A      3.431003  
    1768A      3.446333  1769A      3.456376  1770A      3.459698  
    1771A      3.461360  1772A      3.468584  1773A      3.469656  
    1774A      3.477588  1775A      3.480471  1776A      3.483220  
    1777A      3.487740  1778A      3.493740  1779A      3.497311  
    1780A      3.501207  1781A      3.502465  1782A      3.504415  
    1783A      3.504767  1784A      3.516117  1785A      3.520641  
    1786A      3.521414  1787A      3.523126  1788A      3.528774  
    1789A      3.533375  1790A      3.536791  1791A      3.538138  
    1792A      3.541209  1793A      3.541826  1794A      3.548110  
    1795A      3.554297  1796A      3.556601  1797A      3.560294  
    1798A      3.570429  1799A      3.572932  1800A      3.581173  
    1801A      3.581637  1802A      3.582539  1803A      3.591132  
    1804A      3.596079  1805A      3.602055  1806A      3.603422  
    1807A      3.606058  1808A      3.616795  1809A      3.619834  
    1810A      3.623366  1811A      3.631833  1812A      3.637900  
    1813A      3.638749  1814A      3.640159  1815A      3.646872  
    1816A      3.651728  1817A      3.655015  1818A      3.660520  
    1819A      3.661649  1820A      3.663461  1821A      3.664874  
    1822A      3.666454  1823A      3.666939  1824A      3.670195  
    1825A      3.672379  1826A      3.675099  1827A      3.679252  
    1828A      3.687181  1829A      3.688176  1830A      3.690966  
    1831A      3.698743  1832A      3.700529  1833A      3.703285  
    1834A      3.705550  1835A      3.708328  1836A      3.715355  
    1837A      3.718380  1838A      3.726634  1839A      3.732445  
    1840A      3.733685  1841A      3.734765  1842A      3.736272  
    1843A      3.737131  1844A      3.742799  1845A      3.745784  
    1846A      3.746288  1847A      3.754091  1848A      3.757989  
    1849A      3.758329  1850A      3.765395  1851A      3.766269  
    1852A      3.774099  1853A      3.775289  1854A      3.775754  
    1855A      3.779147  1856A      3.780046  1857A      3.785677  
    1858A      3.793840  1859A      3.796617  1860A      3.798867  
    1861A      3.803310  1862A      3.811907  1863A      3.814774  
    1864A      3.815662  1865A      3.816146  1866A      3.820024  
    1867A      3.825906  1868A      3.835333  1869A      3.836730  
    1870A      3.840780  1871A      3.844487  1872A      3.845330  
    1873A      3.846340  1874A      3.850163  1875A      3.854746  
    1876A      3.858850  1877A      3.863416  1878A      3.866640  
    1879A      3.869997  1880A      3.870965  1881A      3.876379  
    1882A      3.880057  1883A      3.883990  1884A      3.884298  
    1885A      3.886531  1886A      3.891394  1887A      3.893664  
    1888A      3.895216  1889A      3.896399  1890A      3.897562  
    1891A      3.898737  1892A      3.906010  1893A      3.913255  
    1894A      3.913397  1895A      3.914800  1896A      3.918092  
    1897A      3.923922  1898A      3.924487  1899A      3.925580  
    1900A      3.927602  1901A      3.932507  1902A      3.943254  
    1903A      3.949920  1904A      3.950439  1905A      3.951196  
    1906A      3.954539  1907A      3.961458  1908A      3.963877  
    1909A      3.966854  1910A      3.972744  1911A      3.973760  
    1912A      3.976921  1913A      3.983127  1914A      3.984008  
    1915A      3.987607  1916A      3.991099  1917A      3.993137  
    1918A      3.997695  1919A      4.000936  1920A      4.005461  
    1921A      4.005712  1922A      4.008717  1923A      4.010561  
    1924A      4.014756  1925A      4.021901  1926A      4.023012  
    1927A      4.029141  1928A      4.030139  1929A      4.035016  
    1930A      4.039242  1931A      4.039838  1932A      4.042714  
    1933A      4.047719  1934A      4.050024  1935A      4.051747  
    1936A      4.054662  1937A      4.057809  1938A      4.062429  
    1939A      4.063659  1940A      4.064139  1941A      4.069495  
    1942A      4.069930  1943A      4.072380  1944A      4.078110  
    1945A      4.080986  1946A      4.083584  1947A      4.086141  
    1948A      4.086851  1949A      4.088419  1950A      4.094420  
    1951A      4.096782  1952A      4.097165  1953A      4.100875  
    1954A      4.107624  1955A      4.108687  1956A      4.111761  
    1957A      4.116794  1958A      4.121734  1959A      4.125355  
    1960A      4.125382  1961A      4.132351  1962A      4.134771  
    1963A      4.135246  1964A      4.136673  1965A      4.140903  
    1966A      4.145804  1967A      4.146847  1968A      4.151113  
    1969A      4.152765  1970A      4.154887  1971A      4.156016  
    1972A      4.158720  1973A      4.160573  1974A      4.164506  
    1975A      4.166838  1976A      4.171093  1977A      4.174120  
    1978A      4.182990  1979A      4.185826  1980A      4.187027  
    1981A      4.193441  1982A      4.197413  1983A      4.203049  
    1984A      4.205002  1985A      4.205365  1986A      4.208124  
    1987A      4.210078  1988A      4.214943  1989A      4.217205  
    1990A      4.224394  1991A      4.226894  1992A      4.227276  
    1993A      4.231729  1994A      4.239182  1995A      4.239763  
    1996A      4.242055  1997A      4.246138  1998A      4.247063  
    1999A      4.253109  2000A      4.253174  2001A      4.254496  
    2002A      4.257839  2003A      4.259351  2004A      4.264314  
    2005A      4.267288  2006A      4.270829  2007A      4.272361  
    2008A      4.274417  2009A      4.278876  2010A      4.281595  
    2011A      4.284825  2012A      4.286057  2013A      4.288412  
    2014A      4.292069  2015A      4.293227  2016A      4.297758  
    2017A      4.298420  2018A      4.302965  2019A      4.306971  
    2020A      4.307175  2021A      4.309846  2022A      4.313384  
    2023A      4.320009  2024A      4.321126  2025A      4.322621  
    2026A      4.326787  2027A      4.327435  2028A      4.329288  
    2029A      4.333032  2030A      4.337551  2031A      4.338250  
    2032A      4.339826  2033A      4.341827  2034A      4.343841  
    2035A      4.346311  2036A      4.351489  2037A      4.354232  
    2038A      4.354557  2039A      4.357187  2040A      4.361980  
    2041A      4.362579  2042A      4.363251  2043A      4.373320  
    2044A      4.376103  2045A      4.380653  2046A      4.381045  
    2047A      4.382722  2048A      4.387267  2049A      4.391471  
    2050A      4.395625  2051A      4.396999  2052A      4.403217  
    2053A      4.405160  2054A      4.412045  2055A      4.413030  
    2056A      4.413266  2057A      4.417175  2058A      4.418211  
    2059A      4.424605  2060A      4.425684  2061A      4.428287  
    2062A      4.430650  2063A      4.435354  2064A      4.438599  
    2065A      4.440472  2066A      4.443822  2067A      4.448211  
    2068A      4.449535  2069A      4.459500  2070A      4.460324  
    2071A      4.462872  2072A      4.463154  2073A      4.463894  
    2074A      4.465538  2075A      4.470970  2076A      4.476234  
    2077A      4.483149  2078A      4.489288  2079A      4.491075  
    2080A      4.491960  2081A      4.493090  2082A      4.493219  
    2083A      4.499926  2084A      4.503199  2085A      4.503709  
    2086A      4.506783  2087A      4.511792  2088A      4.514216  
    2089A      4.514802  2090A      4.516074  2091A      4.522323  
    2092A      4.527535  2093A      4.529617  2094A      4.531000  
    2095A      4.533907  2096A      4.540055  2097A      4.541327  
    2098A      4.541864  2099A      4.545558  2100A      4.546066  
    2101A      4.547913  2102A      4.550186  2103A      4.555749  
    2104A      4.563572  2105A      4.566529  2106A      4.569533  
    2107A      4.576003  2108A      4.578354  2109A      4.581022  
    2110A      4.589090  2111A      4.591030  2112A      4.592957  
    2113A      4.593148  2114A      4.599685  2115A      4.600318  
    2116A      4.603914  2117A      4.604907  2118A      4.606111  
    2119A      4.609431  2120A      4.615065  2121A      4.621204  
    2122A      4.627970  2123A      4.631494  2124A      4.634102  
    2125A      4.636000  2126A      4.637104  2127A      4.638978  
    2128A      4.646463  2129A      4.657484  2130A      4.658875  
    2131A      4.664800  2132A      4.666142  2133A      4.669085  
    2134A      4.671083  2135A      4.676511  2136A      4.682055  
    2137A      4.688698  2138A      4.690800  2139A      4.693686  
    2140A      4.694060  2141A      4.698059  2142A      4.701189  
    2143A      4.708165  2144A      4.711345  2145A      4.712039  
    2146A      4.718377  2147A      4.720963  2148A      4.726960  
    2149A      4.728961  2150A      4.733773  2151A      4.737936  
    2152A      4.741932  2153A      4.745212  2154A      4.747694  
    2155A      4.751095  2156A      4.753890  2157A      4.754459  
    2158A      4.755136  2159A      4.758283  2160A      4.759543  
    2161A      4.765848  2162A      4.771563  2163A      4.775815  
    2164A      4.777577  2165A      4.779444  2166A      4.790260  
    2167A      4.793625  2168A      4.795935  2169A      4.797984  
    2170A      4.801209  2171A      4.802802  2172A      4.803155  
    2173A      4.811917  2174A      4.814952  2175A      4.818430  
    2176A      4.820972  2177A      4.823418  2178A      4.823663  
    2179A      4.829005  2180A      4.829810  2181A      4.831464  
    2182A      4.835406  2183A      4.837158  2184A      4.845105  
    2185A      4.858060  2186A      4.860093  2187A      4.863357  
    2188A      4.866313  2189A      4.867749  2190A      4.871898  
    2191A      4.873725  2192A      4.878001  2193A      4.878302  
    2194A      4.888433  2195A      4.888814  2196A      4.891843  
    2197A      4.895113  2198A      4.896292  2199A      4.900528  
    2200A      4.900940  2201A      4.907556  2202A      4.908964  
    2203A      4.912922  2204A      4.918689  2205A      4.919856  
    2206A      4.926419  2207A      4.933578  2208A      4.934265  
    2209A      4.936253  2210A      4.938808  2211A      4.946966  
    2212A      4.947537  2213A      4.948058  2214A      4.954607  
    2215A      4.959808  2216A      4.963735  2217A      4.964173  
    2218A      4.969379  2219A      4.973819  2220A      4.975852  
    2221A      4.981275  2222A      4.984384  2223A      4.987787  
    2224A      4.989954  2225A      4.995106  2226A      4.997500  
    2227A      5.001850  2228A      5.004792  2229A      5.007527  
    2230A      5.010637  2231A      5.012525  2232A      5.014455  
    2233A      5.018999  2234A      5.022361  2235A      5.026057  
    2236A      5.029834  2237A      5.032149  2238A      5.034276  
    2239A      5.035807  2240A      5.038303  2241A      5.039334  
    2242A      5.040800  2243A      5.051480  2244A      5.055847  
    2245A      5.056960  2246A      5.060362  2247A      5.063385  
    2248A      5.067010  2249A      5.067187  2250A      5.073844  
    2251A      5.077555  2252A      5.081493  2253A      5.086213  
    2254A      5.092513  2255A      5.099431  2256A      5.104201  
    2257A      5.104501  2258A      5.110556  2259A      5.113443  
    2260A      5.113681  2261A      5.114156  2262A      5.122704  
    2263A      5.126260  2264A      5.132107  2265A      5.134846  
    2266A      5.137099  2267A      5.145085  2268A      5.150427  
    2269A      5.151000  2270A      5.151557  2271A      5.157984  
    2272A      5.161273  2273A      5.161951  2274A      5.166669  
    2275A      5.171635  2276A      5.172218  2277A      5.173376  
    2278A      5.177254  2279A      5.179176  2280A      5.185388  
    2281A      5.195644  2282A      5.198440  2283A      5.209249  
    2284A      5.213116  2285A      5.215358  2286A      5.217429  
    2287A      5.219807  2288A      5.223106  2289A      5.225447  
    2290A      5.227665  2291A      5.231186  2292A      5.233920  
    2293A      5.235927  2294A      5.239889  2295A      5.243122  
    2296A      5.244535  2297A      5.247708  2298A      5.257982  
    2299A      5.265859  2300A      5.268395  2301A      5.273729  
    2302A      5.276222  2303A      5.284280  2304A      5.286149  
    2305A      5.287012  2306A      5.290842  2307A      5.294702  
    2308A      5.296460  2309A      5.308289  2310A      5.309641  
    2311A      5.311356  2312A      5.311449  2313A      5.312900  
    2314A      5.320087  2315A      5.323780  2316A      5.328442  
    2317A      5.332210  2318A      5.335320  2319A      5.339355  
    2320A      5.342960  2321A      5.343745  2322A      5.348841  
    2323A      5.353564  2324A      5.357462  2325A      5.359501  
    2326A      5.360208  2327A      5.367443  2328A      5.370210  
    2329A      5.375601  2330A      5.377997  2331A      5.383326  
    2332A      5.384407  2333A      5.399390  2334A      5.399586  
    2335A      5.402109  2336A      5.406332  2337A      5.408044  
    2338A      5.412519  2339A      5.413916  2340A      5.418940  
    2341A      5.424716  2342A      5.426086  2343A      5.429971  
    2344A      5.430747  2345A      5.437928  2346A      5.448062  
    2347A      5.448781  2348A      5.452477  2349A      5.454481  
    2350A      5.456997  2351A      5.458512  2352A      5.464523  
    2353A      5.471672  2354A      5.478922  2355A      5.482026  
    2356A      5.486153  2357A      5.488392  2358A      5.492964  
    2359A      5.493404  2360A      5.495890  2361A      5.497725  
    2362A      5.503032  2363A      5.512787  2364A      5.515274  
    2365A      5.530998  2366A      5.535496  2367A      5.536011  
    2368A      5.538356  2369A      5.542412  2370A      5.549360  
    2371A      5.550783  2372A      5.552843  2373A      5.558355  
    2374A      5.564415  2375A      5.566706  2376A      5.571974  
    2377A      5.580141  2378A      5.586126  2379A      5.586488  
    2380A      5.586596  2381A      5.590545  2382A      5.593229  
    2383A      5.599966  2384A      5.603904  2385A      5.608800  
    2386A      5.612940  2387A      5.616338  2388A      5.620886  
    2389A      5.623018  2390A      5.625956  2391A      5.632701  
    2392A      5.637050  2393A      5.641369  2394A      5.645126  
    2395A      5.649100  2396A      5.654792  2397A      5.655101  
    2398A      5.660005  2399A      5.670650  2400A      5.673869  
    2401A      5.676879  2402A      5.680478  2403A      5.682243  
    2404A      5.683808  2405A      5.695544  2406A      5.701911  
    2407A      5.702982  2408A      5.715345  2409A      5.722631  
    2410A      5.725241  2411A      5.732640  2412A      5.735093  
    2413A      5.740999  2414A      5.756708  2415A      5.757189  
    2416A      5.760647  2417A      5.771166  2418A      5.774865  
    2419A      5.779619  2420A      5.782315  2421A      5.783276  
    2422A      5.785426  2423A      5.785478  2424A      5.793264  
    2425A      5.812823  2426A      5.816006  2427A      5.819983  
    2428A      5.821435  2429A      5.831327  2430A      5.833183  
    2431A      5.839616  2432A      5.864148  2433A      5.874009  
    2434A      5.877944  2435A      5.878658  2436A      5.893236  
    2437A      5.900719  2438A      5.908126  2439A      5.913728  
    2440A      5.924741  2441A      5.928946  2442A      5.931606  
    2443A      5.935858  2444A      5.937292  2445A      5.955586  
    2446A      5.971220  2447A      5.973577  2448A      5.988642  
    2449A      5.991319  2450A      6.009996  2451A      6.013395  
    2452A      6.020548  2453A      6.026918  2454A      6.031279  
    2455A      6.046148  2456A      6.049463  2457A      6.054064  
    2458A      6.055125  2459A      6.062524  2460A      6.067768  
    2461A      6.072945  2462A      6.080819  2463A      6.088958  
    2464A      6.089652  2465A      6.094930  2466A      6.100528  
    2467A      6.112364  2468A      6.113125  2469A      6.115745  
    2470A      6.134333  2471A      6.138214  2472A      6.141137  
    2473A      6.151430  2474A      6.156578  2475A      6.161905  
    2476A      6.165730  2477A      6.173740  2478A      6.184341  
    2479A      6.192749  2480A      6.193673  2481A      6.203508  
    2482A      6.206761  2483A      6.208381  2484A      6.223589  
    2485A      6.230317  2486A      6.233417  2487A      6.235699  
    2488A      6.254606  2489A      6.256290  2490A      6.265674  
    2491A      6.269650  2492A      6.270928  2493A      6.274976  
    2494A      6.291905  2495A      6.293446  2496A      6.297955  
    2497A      6.298719  2498A      6.314563  2499A      6.324987  
    2500A      6.326309  2501A      6.342448  2502A      6.345362  
    2503A      6.347708  2504A      6.364157  2505A      6.369139  
    2506A      6.371473  2507A      6.375611  2508A      6.376869  
    2509A      6.378514  2510A      6.385659  2511A      6.396416  
    2512A      6.408052  2513A      6.429214  2514A      6.443444  
    2515A      6.443676  2516A      6.476580  2517A      6.479846  
    2518A      6.490161  2519A      6.501388  2520A      6.505802  
    2521A      6.513639  2522A      6.527626  2523A      6.547364  
    2524A      6.560266  2525A      6.563435  2526A      6.572479  
    2527A      6.583898  2528A      6.585629  2529A      6.604912  
    2530A      6.616865  2531A      6.620641  2532A      6.629033  
    2533A      6.634494  2534A      6.640148  2535A      6.651542  
    2536A      6.658169  2537A      6.668794  2538A      6.678529  
    2539A      6.700698  2540A      6.711960  2541A      6.714096  
    2542A      6.714381  2543A      6.722661  2544A      6.741102  
    2545A      6.750650  2546A      6.754859  2547A      6.761727  
    2548A      6.770664  2549A      6.773792  2550A      6.785043  
    2551A      6.792207  2552A      6.801032  2553A      6.802357  
    2554A      6.810443  2555A      6.817231  2556A      6.832806  
    2557A      6.835677  2558A      6.840680  2559A      6.855727  
    2560A      6.863962  2561A      6.865359  2562A      6.867573  
    2563A      6.874666  2564A      6.875432  2565A      6.878842  
    2566A      6.880214  2567A      6.896319  2568A      6.914882  
    2569A      6.921837  2570A      6.923966  2571A      6.929361  
    2572A      6.932908  2573A      6.958242  2574A      6.959320  
    2575A      6.962714  2576A      6.968033  2577A      6.971718  
    2578A      6.977781  2579A      6.982688  2580A      6.984802  
    2581A      6.994082  2582A      7.006349  2583A      7.006764  
    2584A      7.006986  2585A      7.013559  2586A      7.015988  
    2587A      7.017043  2588A      7.021939  2589A      7.033152  
    2590A      7.033889  2591A      7.039422  2592A      7.046726  
    2593A      7.049465  2594A      7.065339  2595A      7.078615  
    2596A      7.079457  2597A      7.085579  2598A      7.087705  
    2599A      7.090227  2600A      7.091278  2601A      7.104925  
    2602A      7.115173  2603A      7.119646  2604A      7.121495  
    2605A      7.140083  2606A      7.140312  2607A      7.156852  
    2608A      7.175163  2609A      7.180001  2610A      7.200388  
    2611A      7.205496  2612A      7.208764  2613A      7.214758  
    2614A      7.222494  2615A      7.226301  2616A      7.236987  
    2617A      7.242436  2618A      7.244003  2619A      7.249345  
    2620A      7.266954  2621A      7.302549  2622A      7.310403  
    2623A      7.320930  2624A      7.329003  2625A      7.347868  
    2626A      7.350045  2627A      7.350474  2628A      7.362374  
    2629A      7.374987  2630A      7.382237  2631A      7.387890  
    2632A      7.394464  2633A      7.395640  2634A      7.411322  
    2635A      7.428126  2636A      7.429699  2637A      7.433248  
    2638A      7.433665  2639A      7.444633  2640A      7.446233  
    2641A      7.459099  2642A      7.472665  2643A      7.481028  
    2644A      7.485887  2645A      7.487085  2646A      7.496102  
    2647A      7.502716  2648A      7.510710  2649A      7.520021  
    2650A      7.524352  2651A      7.537803  2652A      7.543254  
    2653A      7.551783  2654A      7.558691  2655A      7.562171  
    2656A      7.574798  2657A      7.588144  2658A      7.594621  
    2659A      7.598515  2660A      7.604913  2661A      7.608165  
    2662A      7.614057  2663A      7.615961  2664A      7.619609  
    2665A      7.631996  2666A      7.643183  2667A      7.649889  
    2668A      7.668362  2669A      7.674166  2670A      7.675292  
    2671A      7.686765  2672A      7.690577  2673A      7.704490  
    2674A      7.705820  2675A      7.724329  2676A      7.726823  
    2677A      7.731217  2678A      7.734797  2679A      7.753851  
    2680A      7.769173  2681A      7.775297  2682A      7.776187  
    2683A      7.784873  2684A      7.792762  2685A      7.793451  
    2686A      7.794321  2687A      7.801958  2688A      7.807438  
    2689A      7.808594  2690A      7.848483  2691A      7.871797  
    2692A      7.876578  2693A      7.883427  2694A      7.893112  
    2695A      7.898063  2696A      7.931675  2697A      7.950940  
    2698A      7.951622  2699A      7.954118  2700A      7.956629  
    2701A      7.965845  2702A      7.980714  2703A      7.990746  
    2704A      7.991596  2705A      7.998995  2706A      8.000579  
    2707A      8.011624  2708A      8.020087  2709A      8.034105  
    2710A      8.044254  2711A      8.053443  2712A      8.065248  
    2713A      8.083644  2714A      8.207873  2715A      8.249759  
    2716A      8.380831  2717A      8.414639  2718A      8.431142  
    2719A      8.733829  2720A      8.783162  2721A      8.793576  
    2722A     15.009230  2723A     15.065427  2724A     15.629292  
    2725A     15.681070  2726A     15.758059  2727A     15.993269  
    2728A     16.026160  2729A     16.080506  2730A     16.105514  
    2731A     16.307417  2732A     16.839236  2733A     16.902622  
    2734A     17.134797  2735A     17.153258  2736A     17.239143  
    2737A     17.259947  2738A     17.347189  2739A     17.512134  
    2740A     17.894268  2741A     17.988989  2742A     18.410053  
    2743A     18.413859  2744A     18.594106  2745A     18.602686  
    2746A     18.609656  2747A     18.642151  2748A     18.679811  
    2749A     18.785562  2750A     18.853854  2751A     18.867362  
    2752A     19.792864  2753A     19.831840  2754A     19.945850  
    2755A     19.971892  2756A     20.016121  2757A     20.224359  
    2758A     20.565397  2759A     21.444355  2760A     21.933983  

    Final Occupation by Irrep:
              A 
    DOCC [   153 ]

  Energy converged.

  @DF-RHF Final Energy: -2045.27802375274132

   => Energetics <=

    Nuclear Repulsion Energy =           3942.7865771560391295
    One-Electron Energy =              -10650.5351507369578030
    Two-Electron Energy =                4662.4705498281773544
    Total Energy =                      -2045.2780237527413192



Properties will be evaluated at   0.000000,   0.000000,   0.000000 Bohr

Properties computed using the SCF density matrix

  Nuclear Dipole Moment: (a.u.)
     X:   -20.8036      Y:   -23.1315      Z:   -12.8132

  Electronic Dipole Moment: (a.u.)
     X:    21.3468      Y:    21.9666      Z:    14.8939

  Dipole Moment: (a.u.)
     X:     0.5432      Y:    -1.1649      Z:     2.0806     Total:     2.4456

  Dipole Moment: (Debye)
     X:     1.3806      Y:    -2.9609      Z:     5.2885     Total:     6.2162


*** tstop() called on hex15 at Mon Mar  5 04:19:55 2018
Module time:
	user time   =   12470.50 seconds =     207.84 minutes
	system time =    1614.41 seconds =      26.91 minutes
	total time  =      11294 seconds =     188.23 minutes
Total time:
	user time   =   12470.50 seconds =     207.84 minutes
	system time =    1614.41 seconds =      26.91 minutes
	total time  =      11294 seconds =     188.23 minutes

*** Psi4 exiting successfully. Buy a developer a beer!
