
    -----------------------------------------------------------------------
          Psi4: An Open-Source Ab Initio Electronic Structure Package
                               Psi4 1.2a1.dev875 

                         Git: Rev {symm_JK} 0ea9481 dirty


    R. M. Parrish, L. A. Burns, D. G. A. Smith, A. C. Simmonett,
    A. E. DePrince III, E. G. Hohenstein, U. Bozkaya, A. Yu. Sokolov,
    R. Di Remigio, R. M. Richard, J. F. Gonthier, A. M. James,
    H. R. McAlexander, A. Kumar, M. Saitow, X. Wang, B. P. Pritchard,
    P. Verma, H. F. Schaefer III, K. Patkowski, R. A. King, E. F. Valeev,
    F. A. Evangelista, J. M. Turney, T. D. Crawford, and C. D. Sherrill,
    J. Chem. Theory Comput. 13(7) pp 3185--3197 (2017).
    (doi: 10.1021/acs.jctc.7b00174)

    -----------------------------------------------------------------------


    Psi4 started on: Thursday, 01 March 2018 05:10PM

    Process ID:  28174
    PSIDATADIR: /theoryfs2/ds/schieber/Gits/mspsi4/objdir3/stage/usr/local/psi4/share/psi4
    Memory:     500.0 MiB
    Threads:    6
    
  ==> Input File <==

--------------------------------------------------------------------------
memory 60 Gb

molecule protein_54 {
0 1
 N   18.626  30.444   6.627
 C   17.853  29.516   5.837
 C   16.945  30.292   4.886
 O   15.843  30.678   5.237
 C   17.047  28.642   6.811
 C   16.316  27.513   6.146
 O   16.236  27.458   4.905
 O   15.762  26.696   6.882
 N   17.407  27.054  -1.437
 C   17.227  26.751  -0.026
 C   18.555  26.446   0.653
 O   19.003  25.309   0.692
 C   16.258  25.572   0.084
 C   15.759  25.336   1.493
 O   16.399  25.780   2.453
 O   14.731  24.675   1.645
 N   19.106  26.199   3.688
 C   18.957  25.372   4.876
 C   18.845  23.903   4.520
 O   18.660  23.054   5.417
 N   20.536  20.559   2.918
 C   21.779  19.912   2.496
 C   21.693  19.374   1.107
 O   22.642  19.502   0.361
 C   22.169  18.827   3.447
 C   22.272  19.337   4.844
 O   22.714  20.482   5.029
 O   21.836  18.647   5.778
 H   18.180  30.990   7.295
 H   18.510  28.835   5.249
 H   16.336  29.276   7.377
 H   17.778  28.186   7.516
 H   15.845  26.702   7.843
 H   17.860  26.421  -2.023
 H   16.724  27.595   0.500
 H   16.724  24.663  -0.337
 H   15.363  25.845  -0.519
 H   16.737  25.171   3.109
 H   18.314  26.771   3.377
 H   18.015  25.631   5.391
 H   19.792  25.567   5.577
 H   19.976  20.073   3.597
 H   22.602  20.664   2.537
 H   23.175  18.459   3.144
 H   21.465  17.966   3.392
 H   21.492  17.752   5.634
 H   19.646  30.419   6.619
 H   17.295  30.415   3.850
 H   16.947  27.858  -1.864
 H   19.060  27.284   1.155
 H   20.034  26.347   3.290
 H   18.824  23.654   3.449
 H   20.197  21.395   2.443
 H   20.727  18.956   0.786
}

set {
basis cc-pvtz
scf_type df
guess sad
DF_SCF_TYPE DFJK
}

energy('HF')
--------------------------------------------------------------------------

  Memory set to  55.879 GiB by Python driver.

*** tstart() called on hex15
*** at Thu Mar  1 17:10:56 2018

   => Loading Basis Set <=

    Name: CC-PVTZ
    Role: ORBITAL
    Keyword: BASIS
    atoms 1, 9, 17, 21                                entry N          line   224 file /theoryfs2/ds/schieber/Gits/mspsi4/objdir3/stage/usr/local/psi4/share/psi4/basis/cc-pvtz.gbs 
    atoms 2-3, 5-6, 10-11, 13-14, 18-19, 22-23, 25-26 entry C          line   186 file /theoryfs2/ds/schieber/Gits/mspsi4/objdir3/stage/usr/local/psi4/share/psi4/basis/cc-pvtz.gbs 
    atoms 4, 7-8, 12, 15-16, 20, 24, 27-28            entry O          line   262 file /theoryfs2/ds/schieber/Gits/mspsi4/objdir3/stage/usr/local/psi4/share/psi4/basis/cc-pvtz.gbs 
    atoms 29-54                                       entry H          line    23 file /theoryfs2/ds/schieber/Gits/mspsi4/objdir3/stage/usr/local/psi4/share/psi4/basis/cc-pvtz.gbs 


         ---------------------------------------------------------
                                   SCF
            by Justin Turney, Rob Parrish, Andy Simmonett
                             and Daniel Smith
                              RHF Reference
                        6 Threads,  57220 MiB Core
         ---------------------------------------------------------

  ==> Geometry <==

    Molecular point group: c1
    Full point group: C1

    Geometry (in Angstrom), charge = 0, multiplicity = 1:

       Center              X                  Y                   Z               Mass       
    ------------   -----------------  -----------------  -----------------  -----------------
           N          0.020074539305     5.686424476598     3.129539240050    14.003074004780
           C         -0.752925460695     4.758424476598     2.339539240050    12.000000000000
           C         -1.660925460695     5.534424476598     1.388539240050    12.000000000000
           O         -2.762925460695     5.920424476598     1.739539240050    15.994914619560
           C         -1.558925460695     3.884424476598     3.313539240050    12.000000000000
           C         -2.289925460695     2.755424476598     2.648539240050    12.000000000000
           O         -2.369925460695     2.700424476598     1.407539240050    15.994914619560
           O         -2.843925460695     1.938424476598     3.384539240050    15.994914619560
           N         -1.198925460695     2.296424476598    -4.934460759950    14.003074004780
           C         -1.378925460695     1.993424476598    -3.523460759950    12.000000000000
           C         -0.050925460695     1.688424476598    -2.844460759950    12.000000000000
           O          0.397074539305     0.551424476598    -2.805460759950    15.994914619560
           C         -2.347925460695     0.814424476598    -3.413460759950    12.000000000000
           C         -2.846925460695     0.578424476598    -2.004460759950    12.000000000000
           O         -2.206925460695     1.022424476598    -1.044460759950    15.994914619560
           O         -3.874925460695    -0.082575523402    -1.852460759950    15.994914619560
           N          0.500074539305     1.441424476598     0.190539240050    14.003074004780
           C          0.351074539305     0.614424476598     1.378539240050    12.000000000000
           C          0.239074539305    -0.854575523402     1.022539240050    12.000000000000
           O          0.054074539305    -1.703575523402     1.919539240050    15.994914619560
           N          1.930074539305    -4.198575523402    -0.579460759950    14.003074004780
           C          3.173074539305    -4.845575523402    -1.001460759950    12.000000000000
           C          3.087074539305    -5.383575523402    -2.390460759950    12.000000000000
           O          4.036074539305    -5.255575523402    -3.136460759950    15.994914619560
           C          3.563074539305    -5.930575523402    -0.050460759950    12.000000000000
           C          3.666074539305    -5.420575523402     1.346539240050    12.000000000000
           O          4.108074539305    -4.275575523402     1.531539240050    15.994914619560
           O          3.230074539305    -6.110575523402     2.280539240050    15.994914619560
           H         -0.425925460695     6.232424476598     3.797539240050     1.007825032070
           H         -0.095925460695     4.077424476598     1.751539240050     1.007825032070
           H         -2.269925460695     4.518424476598     3.879539240050     1.007825032070
           H         -0.827925460695     3.428424476598     4.018539240050     1.007825032070
           H         -2.760925460695     1.944424476598     4.345539240050     1.007825032070
           H         -0.745925460695     1.663424476598    -5.520460759950     1.007825032070
           H         -1.881925460695     2.837424476598    -2.997460759950     1.007825032070
           H         -1.881925460695    -0.094575523402    -3.834460759950     1.007825032070
           H         -3.242925460695     1.087424476598    -4.016460759950     1.007825032070
           H         -1.868925460695     0.413424476598    -0.388460759950     1.007825032070
           H         -0.291925460695     2.013424476598    -0.120460759950     1.007825032070
           H         -0.590925460695     0.873424476598     1.893539240050     1.007825032070
           H          1.186074539305     0.809424476598     2.079539240050     1.007825032070
           H          1.370074539305    -4.684575523402     0.099539240050     1.007825032070
           H          3.996074539305    -4.093575523402    -0.960460759950     1.007825032070
           H          4.569074539305    -6.298575523402    -0.353460759950     1.007825032070
           H          2.859074539305    -6.791575523402    -0.105460759950     1.007825032070
           H          2.886074539305    -7.005575523402     2.136539240050     1.007825032070
           H          1.040074539305     5.661424476598     3.121539240050     1.007825032070
           H         -1.310925460695     5.657424476598     0.352539240050     1.007825032070
           H         -1.658925460695     3.100424476598    -5.361460759950     1.007825032070
           H          0.454074539305     2.526424476598    -2.342460759950     1.007825032070
           H          1.428074539305     1.589424476598    -0.207460759950     1.007825032070
           H          0.218074539305    -1.103575523402    -0.048460759950     1.007825032070
           H          1.591074539305    -3.362575523402    -1.054460759950     1.007825032070
           H          2.121074539305    -5.801575523402    -2.711460759950     1.007825032070

  Running in c1 symmetry.

  Rotational constants: A =      0.00569  B =      0.00205  C =      0.00170 [cm^-1]
  Rotational constants: A =    170.63320  B =     61.47394  C =     50.92296 [MHz]
  Nuclear repulsion = 2605.305023422821705

  Charge       = 0
  Multiplicity = 1
  Electrons    = 218
  Nalpha       = 109
  Nbeta        = 109

  ==> Algorithm <==

  SCF Algorithm Type is DF.
  DIIS enabled.
  MOM disabled.
  Fractional occupation disabled.
  Guess Type is SAD.
  Energy threshold   = 1.00e-06
  Density threshold  = 1.00e-06
  Integral threshold = 0.00e+00

  ==> Primary Basis <==

  Basis Set: CC-PVTZ
    Blend: CC-PVTZ
    Number of shells: 436
    Number of basis function: 1204
    Number of Cartesian functions: 1370
    Spherical Harmonics?: true
    Max angular momentum: 3

   => Loading Basis Set <=

    Name: (CC-PVTZ AUX)
    Role: JKFIT
    Keyword: DF_BASIS_SCF
    atoms 1, 9, 17, 21                                entry N          line   177 file /theoryfs2/ds/schieber/Gits/mspsi4/objdir3/stage/usr/local/psi4/share/psi4/basis/cc-pvtz-jkfit.gbs 
    atoms 2-3, 5-6, 10-11, 13-14, 18-19, 22-23, 25-26 entry C          line   125 file /theoryfs2/ds/schieber/Gits/mspsi4/objdir3/stage/usr/local/psi4/share/psi4/basis/cc-pvtz-jkfit.gbs 
    atoms 4, 7-8, 12, 15-16, 20, 24, 27-28            entry O          line   229 file /theoryfs2/ds/schieber/Gits/mspsi4/objdir3/stage/usr/local/psi4/share/psi4/basis/cc-pvtz-jkfit.gbs 
    atoms 29-54                                       entry H          line    51 file /theoryfs2/ds/schieber/Gits/mspsi4/objdir3/stage/usr/local/psi4/share/psi4/basis/cc-pvtz-jkfit.gbs 

  ==> Pre-Iterations <==

   -------------------------------------------------------
    Irrep   Nso     Nmo     Nalpha   Nbeta   Ndocc  Nsocc
   -------------------------------------------------------
     A       1204    1204       0       0       0       0
   -------------------------------------------------------
    Total    1204    1204     109     109     109       0
   -------------------------------------------------------

  ==> Integral Setup <==

  ==> DFJK: Density-Fitted J/K Matrices <==

    J tasked:                  Yes
    K tasked:                  Yes
    wK tasked:                  No
    OpenMP threads:              6
    Integrals threads:           6
    Memory (MB):             42915
    Algorithm:                Core
    Integral Cache:           NONE
    Schwarz Cutoff:          1E-12
    Fitting Condition:       1E-12

   => Auxiliary Basis Set <=

  Basis Set: (CC-PVTZ AUX)
    Blend: CC-PVTZ-JKFIT
    Number of shells: 960
    Number of basis function: 2992
    Number of Cartesian functions: 3598
    Spherical Harmonics?: true
    Max angular momentum: 4

  Minimum eigenvalue in the overlap matrix is 2.4881040691E-04.
  Using Symmetric Orthogonalization.

  SCF Guess: Superposition of Atomic Densities via on-the-fly atomic UHF.

  ==> Iterations <==

                           Total Energy        Delta E     RMS |[F,P]|

   @DF-RHF iter   0: -1522.65777327912770   -1.52266e+03   2.05234e-02 
   @DF-RHF iter   1: -1510.99169373425093    1.16661e+01   2.91926e-03 
   @DF-RHF iter   2: -1511.65696680307383   -6.65273e-01   2.24001e-03 DIIS
   @DF-RHF iter   3: -1512.09025554382742   -4.33289e-01   3.95956e-04 DIIS
   @DF-RHF iter   4: -1512.12394562061991   -3.36901e-02   1.49450e-04 DIIS
   @DF-RHF iter   5: -1512.12948164639488   -5.53603e-03   6.67129e-05 DIIS
   @DF-RHF iter   6: -1512.13084364275892   -1.36200e-03   2.98419e-05 DIIS
   @DF-RHF iter   7: -1512.13117393615585   -3.30293e-04   1.27579e-05 DIIS
   @DF-RHF iter   8: -1512.13122973529835   -5.57991e-05   5.11136e-06 DIIS
   @DF-RHF iter   9: -1512.13124077791372   -1.10426e-05   1.98080e-06 DIIS
   @DF-RHF iter  10: -1512.13124303230006   -2.25439e-06   9.68497e-07 DIIS
   @DF-RHF iter  11: -1512.13124366266788   -6.30368e-07   4.82634e-07 DIIS

  ==> Post-Iterations <==

    Orbital Energies (a.u.)
    -----------------------

    Doubly Occupied:                                                      

       1A    -20.644195     2A    -20.634008     3A    -20.602683  
       4A    -20.567169     5A    -20.559124     6A    -20.556709  
       7A    -20.556169     8A    -20.538631     9A    -20.517301  
      10A    -20.513766    11A    -15.555160    12A    -15.548815  
      13A    -15.547578    14A    -15.540374    15A    -11.395747  
      16A    -11.380553    17A    -11.365001    18A    -11.343631  
      19A    -11.336464    20A    -11.334608    21A    -11.324672  
      22A    -11.295654    23A    -11.289711    24A    -11.280696  
      25A    -11.274593    26A    -11.264274    27A    -11.264040  
      28A    -11.238019    29A     -1.527417    30A     -1.510832  
      31A     -1.498525    32A     -1.396461    33A     -1.390704  
      34A     -1.390467    35A     -1.366521    36A     -1.356484  
      37A     -1.337573    38A     -1.331621    39A     -1.212125  
      40A     -1.200650    41A     -1.191387    42A     -1.184130  
      43A     -1.054707    44A     -1.053945    45A     -1.042592  
      46A     -0.963680    47A     -0.949009    48A     -0.938558  
      49A     -0.936351    50A     -0.905836    51A     -0.888641  
      52A     -0.874266    53A     -0.808967    54A     -0.801800  
      55A     -0.797131    56A     -0.794537    57A     -0.746458  
      58A     -0.731925    59A     -0.730658    60A     -0.717681  
      61A     -0.710065    62A     -0.704869    63A     -0.694311  
      64A     -0.692387    65A     -0.687200    66A     -0.684442  
      67A     -0.677689    68A     -0.665074    69A     -0.663740  
      70A     -0.660806    71A     -0.657574    72A     -0.656129  
      73A     -0.652704    74A     -0.641930    75A     -0.632614  
      76A     -0.630058    77A     -0.628744    78A     -0.628009  
      79A     -0.621287    80A     -0.608321    81A     -0.589055  
      82A     -0.576300    83A     -0.572648    84A     -0.565430  
      85A     -0.561669    86A     -0.557787    87A     -0.548005  
      88A     -0.531633    89A     -0.530642    90A     -0.529436  
      91A     -0.520140    92A     -0.514099    93A     -0.505186  
      94A     -0.499430    95A     -0.486622    96A     -0.473040  
      97A     -0.461072    98A     -0.457194    99A     -0.455599  
     100A     -0.447304   101A     -0.443517   102A     -0.442372  
     103A     -0.438325   104A     -0.434117   105A     -0.430958  
     106A     -0.385184   107A     -0.380912   108A     -0.376568  
     109A     -0.374622  

    Virtual:                                                              

     110A      0.099236   111A      0.102899   112A      0.105051  
     113A      0.110198   114A      0.111701   115A      0.114906  
     116A      0.123975   117A      0.142178   118A      0.145686  
     119A      0.150027   120A      0.152940   121A      0.157964  
     122A      0.160332   123A      0.164402   124A      0.167463  
     125A      0.171765   126A      0.175256   127A      0.184432  
     128A      0.189498   129A      0.194616   130A      0.197113  
     131A      0.203183   132A      0.204024   133A      0.214025  
     134A      0.219617   135A      0.226504   136A      0.227240  
     137A      0.232584   138A      0.235737   139A      0.246437  
     140A      0.265543   141A      0.281687   142A      0.282172  
     143A      0.289707   144A      0.299274   145A      0.307838  
     146A      0.313497   147A      0.327208   148A      0.336342  
     149A      0.340942   150A      0.344002   151A      0.349187  
     152A      0.350280   153A      0.355102   154A      0.360722  
     155A      0.369416   156A      0.373669   157A      0.380496  
     158A      0.385033   159A      0.388221   160A      0.401331  
     161A      0.402800   162A      0.406216   163A      0.414837  
     164A      0.420225   165A      0.430706   166A      0.435135  
     167A      0.440024   168A      0.450253   169A      0.450703  
     170A      0.461529   171A      0.464008   172A      0.465213  
     173A      0.467159   174A      0.471662   175A      0.477265  
     176A      0.480779   177A      0.494409   178A      0.494836  
     179A      0.500776   180A      0.507345   181A      0.511087  
     182A      0.513881   183A      0.516174   184A      0.522554  
     185A      0.526512   186A      0.533290   187A      0.541396  
     188A      0.546418   189A      0.549764   190A      0.550820  
     191A      0.557808   192A      0.563503   193A      0.565111  
     194A      0.566276   195A      0.569642   196A      0.574937  
     197A      0.577454   198A      0.581240   199A      0.583050  
     200A      0.586602   201A      0.587983   202A      0.593713  
     203A      0.595372   204A      0.600462   205A      0.603014  
     206A      0.608173   207A      0.610454   208A      0.620033  
     209A      0.621983   210A      0.627651   211A      0.628302  
     212A      0.630308   213A      0.633335   214A      0.636355  
     215A      0.643190   216A      0.647232   217A      0.647972  
     218A      0.653586   219A      0.655004   220A      0.658972  
     221A      0.660030   222A      0.662045   223A      0.671370  
     224A      0.673446   225A      0.674925   226A      0.679082  
     227A      0.685536   228A      0.688161   229A      0.691497  
     230A      0.694506   231A      0.698344   232A      0.708599  
     233A      0.709394   234A      0.710102   235A      0.712305  
     236A      0.719303   237A      0.723855   238A      0.728082  
     239A      0.730229   240A      0.735056   241A      0.739470  
     242A      0.741917   243A      0.744339   244A      0.747998  
     245A      0.750088   246A      0.758673   247A      0.764137  
     248A      0.769734   249A      0.773380   250A      0.780502  
     251A      0.784479   252A      0.786538   253A      0.790560  
     254A      0.791044   255A      0.796592   256A      0.802343  
     257A      0.804823   258A      0.807956   259A      0.815340  
     260A      0.828613   261A      0.833071   262A      0.837042  
     263A      0.843646   264A      0.845949   265A      0.854990  
     266A      0.856717   267A      0.861909   268A      0.867892  
     269A      0.877005   270A      0.881019   271A      0.882251  
     272A      0.891085   273A      0.892086   274A      0.896655  
     275A      0.901384   276A      0.910113   277A      0.911814  
     278A      0.913640   279A      0.921916   280A      0.924540  
     281A      0.935132   282A      0.938812   283A      0.940206  
     284A      0.940528   285A      0.944405   286A      0.952559  
     287A      0.958323   288A      0.961926   289A      0.965167  
     290A      0.971071   291A      0.978557   292A      0.982566  
     293A      0.985996   294A      0.990917   295A      0.997839  
     296A      0.999017   297A      1.005020   298A      1.016095  
     299A      1.020621   300A      1.028707   301A      1.033982  
     302A      1.036454   303A      1.050573   304A      1.053764  
     305A      1.060184   306A      1.061371   307A      1.065076  
     308A      1.066586   309A      1.083480   310A      1.085190  
     311A      1.101270   312A      1.102180   313A      1.106697  
     314A      1.118485   315A      1.122480   316A      1.124718  
     317A      1.131100   318A      1.134489   319A      1.140987  
     320A      1.143531   321A      1.147647   322A      1.152286  
     323A      1.163177   324A      1.170896   325A      1.182739  
     326A      1.183925   327A      1.193322   328A      1.196704  
     329A      1.199000   330A      1.200488   331A      1.205981  
     332A      1.207995   333A      1.211320   334A      1.215792  
     335A      1.223477   336A      1.230633   337A      1.236251  
     338A      1.243948   339A      1.254236   340A      1.257073  
     341A      1.260985   342A      1.262308   343A      1.267930  
     344A      1.280256   345A      1.282528   346A      1.286170  
     347A      1.295623   348A      1.296944   349A      1.301219  
     350A      1.308737   351A      1.310036   352A      1.312188  
     353A      1.315951   354A      1.321086   355A      1.328460  
     356A      1.329814   357A      1.333818   358A      1.343354  
     359A      1.343906   360A      1.347155   361A      1.355776  
     362A      1.358439   363A      1.361130   364A      1.371406  
     365A      1.376678   366A      1.377719   367A      1.384531  
     368A      1.387927   369A      1.394946   370A      1.395492  
     371A      1.398362   372A      1.408907   373A      1.413565  
     374A      1.418652   375A      1.428400   376A      1.429892  
     377A      1.437144   378A      1.440991   379A      1.449259  
     380A      1.452595   381A      1.454638   382A      1.461728  
     383A      1.468465   384A      1.474779   385A      1.480825  
     386A      1.485232   387A      1.488775   388A      1.494486  
     389A      1.503956   390A      1.504479   391A      1.514361  
     392A      1.515412   393A      1.521380   394A      1.522669  
     395A      1.524971   396A      1.533178   397A      1.540856  
     398A      1.549997   399A      1.553883   400A      1.562182  
     401A      1.570632   402A      1.574874   403A      1.582200  
     404A      1.588099   405A      1.589872   406A      1.595413  
     407A      1.596824   408A      1.602326   409A      1.609224  
     410A      1.612998   411A      1.619895   412A      1.624452  
     413A      1.629732   414A      1.631932   415A      1.638363  
     416A      1.647794   417A      1.648782   418A      1.651212  
     419A      1.657816   420A      1.659144   421A      1.668360  
     422A      1.671163   423A      1.675158   424A      1.684785  
     425A      1.691509   426A      1.709653   427A      1.722121  
     428A      1.722409   429A      1.727442   430A      1.735947  
     431A      1.745116   432A      1.752706   433A      1.759454  
     434A      1.765631   435A      1.770703   436A      1.780329  
     437A      1.781774   438A      1.788614   439A      1.795567  
     440A      1.805782   441A      1.817979   442A      1.824349  
     443A      1.833668   444A      1.852924   445A      1.862912  
     446A      1.864506   447A      1.889581   448A      1.891206  
     449A      1.907839   450A      1.908070   451A      1.921646  
     452A      1.925130   453A      1.930284   454A      1.936562  
     455A      1.945794   456A      1.949923   457A      1.953832  
     458A      1.960613   459A      1.964691   460A      1.972176  
     461A      1.979750   462A      1.990620   463A      1.995331  
     464A      1.997311   465A      2.005723   466A      2.007909  
     467A      2.011676   468A      2.019290   469A      2.023171  
     470A      2.036616   471A      2.038112   472A      2.056723  
     473A      2.060368   474A      2.063467   475A      2.067194  
     476A      2.079501   477A      2.082876   478A      2.100039  
     479A      2.103653   480A      2.112152   481A      2.119701  
     482A      2.133978   483A      2.145764   484A      2.155760  
     485A      2.171753   486A      2.180018   487A      2.223746  
     488A      2.228040   489A      2.257809   490A      2.267873  
     491A      2.276875   492A      2.287501   493A      2.296424  
     494A      2.299142   495A      2.318277   496A      2.319403  
     497A      2.337591   498A      2.353802   499A      2.363334  
     500A      2.369120   501A      2.377396   502A      2.386386  
     503A      2.389896   504A      2.391188   505A      2.397966  
     506A      2.402206   507A      2.407821   508A      2.427185  
     509A      2.431645   510A      2.437564   511A      2.458707  
     512A      2.465856   513A      2.468294   514A      2.475755  
     515A      2.480351   516A      2.483174   517A      2.489977  
     518A      2.497066   519A      2.503831   520A      2.514439  
     521A      2.539956   522A      2.541089   523A      2.542917  
     524A      2.553468   525A      2.565931   526A      2.585523  
     527A      2.608141   528A      2.622533   529A      2.636190  
     530A      2.644453   531A      2.658374   532A      2.658934  
     533A      2.663332   534A      2.686921   535A      2.701361  
     536A      2.713433   537A      2.729148   538A      2.733024  
     539A      2.741430   540A      2.762063   541A      2.763770  
     542A      2.767357   543A      2.769562   544A      2.776553  
     545A      2.779468   546A      2.786661   547A      2.792861  
     548A      2.798981   549A      2.816227   550A      2.821577  
     551A      2.835961   552A      2.845611   553A      2.847518  
     554A      2.851445   555A      2.860192   556A      2.865268  
     557A      2.867571   558A      2.872586   559A      2.887180  
     560A      2.891850   561A      2.898143   562A      2.908088  
     563A      2.918940   564A      2.922569   565A      2.931686  
     566A      2.937664   567A      2.942359   568A      2.946812  
     569A      2.955487   570A      2.958740   571A      2.966726  
     572A      2.973050   573A      2.977545   574A      2.978023  
     575A      2.988442   576A      2.997651   577A      3.003929  
     578A      3.005224   579A      3.010943   580A      3.020038  
     581A      3.022993   582A      3.029579   583A      3.036227  
     584A      3.046456   585A      3.047807   586A      3.067020  
     587A      3.071420   588A      3.074998   589A      3.078961  
     590A      3.087448   591A      3.088017   592A      3.102960  
     593A      3.115398   594A      3.129569   595A      3.133647  
     596A      3.135776   597A      3.145711   598A      3.155081  
     599A      3.160840   600A      3.168962   601A      3.171892  
     602A      3.173621   603A      3.180851   604A      3.192539  
     605A      3.199032   606A      3.201933   607A      3.202710  
     608A      3.209954   609A      3.214873   610A      3.221421  
     611A      3.225848   612A      3.232045   613A      3.242122  
     614A      3.247288   615A      3.256729   616A      3.259837  
     617A      3.264979   618A      3.266099   619A      3.276614  
     620A      3.284221   621A      3.285956   622A      3.287354  
     623A      3.293791   624A      3.294894   625A      3.296872  
     626A      3.303334   627A      3.310297   628A      3.318970  
     629A      3.320341   630A      3.321417   631A      3.324038  
     632A      3.324560   633A      3.334724   634A      3.337031  
     635A      3.346509   636A      3.349394   637A      3.355523  
     638A      3.361745   639A      3.369567   640A      3.377133  
     641A      3.379998   642A      3.383052   643A      3.387998  
     644A      3.389898   645A      3.399217   646A      3.400227  
     647A      3.406590   648A      3.414679   649A      3.420254  
     650A      3.422627   651A      3.424537   652A      3.430492  
     653A      3.433584   654A      3.440639   655A      3.443547  
     656A      3.447953   657A      3.450903   658A      3.456025  
     659A      3.462452   660A      3.463816   661A      3.467298  
     662A      3.471921   663A      3.474674   664A      3.476919  
     665A      3.481845   666A      3.491981   667A      3.494988  
     668A      3.495880   669A      3.498425   670A      3.499989  
     671A      3.506026   672A      3.508793   673A      3.512405  
     674A      3.514434   675A      3.522773   676A      3.524985  
     677A      3.528195   678A      3.532055   679A      3.537696  
     680A      3.547724   681A      3.555166   682A      3.555519  
     683A      3.558280   684A      3.566932   685A      3.571683  
     686A      3.581504   687A      3.589192   688A      3.591157  
     689A      3.599725   690A      3.602706   691A      3.610105  
     692A      3.614211   693A      3.622854   694A      3.625854  
     695A      3.634234   696A      3.638173   697A      3.649092  
     698A      3.652347   699A      3.655213   700A      3.659711  
     701A      3.662988   702A      3.668563   703A      3.668999  
     704A      3.683131   705A      3.687208   706A      3.690462  
     707A      3.698890   708A      3.703999   709A      3.709062  
     710A      3.715291   711A      3.719063   712A      3.720531  
     713A      3.724830   714A      3.732494   715A      3.736152  
     716A      3.746309   717A      3.749695   718A      3.753582  
     719A      3.754053   720A      3.766634   721A      3.770054  
     722A      3.776360   723A      3.794838   724A      3.799149  
     725A      3.802119   726A      3.803687   727A      3.806050  
     728A      3.824610   729A      3.827688   730A      3.832133  
     731A      3.836748   732A      3.842186   733A      3.847909  
     734A      3.848810   735A      3.849993   736A      3.852840  
     737A      3.857420   738A      3.860385   739A      3.865482  
     740A      3.875965   741A      3.886542   742A      3.888704  
     743A      3.895741   744A      3.904166   745A      3.909206  
     746A      3.914781   747A      3.916869   748A      3.919180  
     749A      3.922283   750A      3.932490   751A      3.936717  
     752A      3.939512   753A      3.950267   754A      3.955821  
     755A      3.958713   756A      3.965924   757A      3.971222  
     758A      3.975076   759A      3.981576   760A      3.983561  
     761A      3.993743   762A      3.994414   763A      3.997496  
     764A      4.010563   765A      4.011689   766A      4.022215  
     767A      4.022892   768A      4.027582   769A      4.036829  
     770A      4.047837   771A      4.049608   772A      4.053103  
     773A      4.054658   774A      4.065512   775A      4.076093  
     776A      4.079231   777A      4.084229   778A      4.089612  
     779A      4.093878   780A      4.106043   781A      4.111894  
     782A      4.118357   783A      4.120309   784A      4.124750  
     785A      4.133647   786A      4.137322   787A      4.138536  
     788A      4.155140   789A      4.156755   790A      4.162836  
     791A      4.165918   792A      4.167768   793A      4.170350  
     794A      4.171147   795A      4.172506   796A      4.181517  
     797A      4.197083   798A      4.198285   799A      4.200982  
     800A      4.205442   801A      4.207791   802A      4.212408  
     803A      4.218470   804A      4.222785   805A      4.231499  
     806A      4.242823   807A      4.256378   808A      4.260251  
     809A      4.264987   810A      4.267000   811A      4.271029  
     812A      4.274213   813A      4.280632   814A      4.285272  
     815A      4.291771   816A      4.293302   817A      4.295548  
     818A      4.302414   819A      4.310417   820A      4.315995  
     821A      4.319745   822A      4.322698   823A      4.324427  
     824A      4.332138   825A      4.337491   826A      4.345020  
     827A      4.350692   828A      4.359198   829A      4.362899  
     830A      4.369649   831A      4.371040   832A      4.376632  
     833A      4.381630   834A      4.383101   835A      4.387742  
     836A      4.388975   837A      4.395762   838A      4.409151  
     839A      4.419107   840A      4.424358   841A      4.427707  
     842A      4.430336   843A      4.432137   844A      4.438499  
     845A      4.446982   846A      4.451377   847A      4.454387  
     848A      4.463161   849A      4.469285   850A      4.474698  
     851A      4.476850   852A      4.489628   853A      4.496222  
     854A      4.501492   855A      4.512619   856A      4.521493  
     857A      4.526433   858A      4.534586   859A      4.540339  
     860A      4.547611   861A      4.551485   862A      4.557656  
     863A      4.559986   864A      4.570316   865A      4.573101  
     866A      4.575573   867A      4.578749   868A      4.587392  
     869A      4.589015   870A      4.593376   871A      4.598968  
     872A      4.606055   873A      4.612070   874A      4.614144  
     875A      4.617002   876A      4.623121   877A      4.631974  
     878A      4.635670   879A      4.641188   880A      4.646822  
     881A      4.654858   882A      4.660214   883A      4.664896  
     884A      4.673129   885A      4.678411   886A      4.682635  
     887A      4.685778   888A      4.697965   889A      4.702231  
     890A      4.709255   891A      4.718342   892A      4.722590  
     893A      4.724256   894A      4.731282   895A      4.737746  
     896A      4.742837   897A      4.751370   898A      4.757557  
     899A      4.763694   900A      4.775851   901A      4.778167  
     902A      4.794911   903A      4.803781   904A      4.807038  
     905A      4.810397   906A      4.813472   907A      4.817296  
     908A      4.823016   909A      4.839648   910A      4.859294  
     911A      4.875866   912A      4.878634   913A      4.882300  
     914A      4.885366   915A      4.893612   916A      4.908186  
     917A      4.918087   918A      4.921112   919A      4.927914  
     920A      4.932891   921A      4.951893   922A      4.962899  
     923A      4.978641   924A      5.000738   925A      5.002911  
     926A      5.008127   927A      5.024905   928A      5.028970  
     929A      5.048724   930A      5.049749   931A      5.053086  
     932A      5.054372   933A      5.062795   934A      5.083253  
     935A      5.092007   936A      5.102770   937A      5.105043  
     938A      5.113150   939A      5.123804   940A      5.133767  
     941A      5.138449   942A      5.149636   943A      5.150793  
     944A      5.158144   945A      5.162658   946A      5.170928  
     947A      5.188227   948A      5.194248   949A      5.213546  
     950A      5.229417   951A      5.231103   952A      5.232517  
     953A      5.236828   954A      5.243622   955A      5.247145  
     956A      5.254379   957A      5.259683   958A      5.269235  
     959A      5.275678   960A      5.281163   961A      5.301623  
     962A      5.306022   963A      5.311883   964A      5.326922  
     965A      5.328474   966A      5.338367   967A      5.347285  
     968A      5.354500   969A      5.356147   970A      5.363524  
     971A      5.375043   972A      5.381321   973A      5.403523  
     974A      5.407000   975A      5.418234   976A      5.436403  
     977A      5.444982   978A      5.452728   979A      5.466660  
     980A      5.468976   981A      5.491281   982A      5.498488  
     983A      5.512813   984A      5.514220   985A      5.519052  
     986A      5.529907   987A      5.534870   988A      5.539401  
     989A      5.545729   990A      5.556069   991A      5.579643  
     992A      5.600799   993A      5.607182   994A      5.612405  
     995A      5.620122   996A      5.632048   997A      5.638151  
     998A      5.643223   999A      5.647160  1000A      5.656455  
    1001A      5.663888  1002A      5.665153  1003A      5.668263  
    1004A      5.674500  1005A      5.680997  1006A      5.682072  
    1007A      5.683380  1008A      5.685726  1009A      5.686107  
    1010A      5.698496  1011A      5.698945  1012A      5.700747  
    1013A      5.718775  1014A      5.728346  1015A      5.738515  
    1016A      5.752116  1017A      5.762583  1018A      5.767023  
    1019A      5.768516  1020A      5.769732  1021A      5.783707  
    1022A      5.795036  1023A      5.808879  1024A      5.813229  
    1025A      5.840182  1026A      5.847020  1027A      5.859287  
    1028A      5.871751  1029A      5.877833  1030A      5.883252  
    1031A      5.899472  1032A      5.951088  1033A      5.951962  
    1034A      5.989762  1035A      5.998427  1036A      6.012858  
    1037A      6.013365  1038A      6.018637  1039A      6.025495  
    1040A      6.027476  1041A      6.030016  1042A      6.039335  
    1043A      6.052166  1044A      6.063011  1045A      6.068882  
    1046A      6.071700  1047A      6.072589  1048A      6.092925  
    1049A      6.097330  1050A      6.101493  1051A      6.111959  
    1052A      6.121771  1053A      6.130907  1054A      6.132624  
    1055A      6.139517  1056A      6.143148  1057A      6.151730  
    1058A      6.162725  1059A      6.171723  1060A      6.186123  
    1061A      6.197355  1062A      6.198265  1063A      6.200856  
    1064A      6.214507  1065A      6.223496  1066A      6.235034  
    1067A      6.235936  1068A      6.259593  1069A      6.287317  
    1070A      6.300486  1071A      6.307778  1072A      6.331366  
    1073A      6.348538  1074A      6.357098  1075A      6.420030  
    1076A      6.458168  1077A      6.485588  1078A      6.492188  
    1079A      6.494225  1080A      6.564676  1081A      6.577922  
    1082A      6.580898  1083A      6.624782  1084A      6.625412  
    1085A      6.632577  1086A      6.635283  1087A      6.645252  
    1088A      6.654982  1089A      6.678209  1090A      6.694173  
    1091A      6.707594  1092A      6.708620  1093A      6.710844  
    1094A      6.714910  1095A      6.718604  1096A      6.727757  
    1097A      6.730316  1098A      6.759967  1099A      6.761231  
    1100A      6.766439  1101A      6.780625  1102A      6.794060  
    1103A      6.826593  1104A      6.833487  1105A      6.836802  
    1106A      6.843727  1107A      6.898825  1108A      6.910070  
    1109A      6.917095  1110A      6.924289  1111A      6.927482  
    1112A      6.931917  1113A      6.940108  1114A      6.952282  
    1115A      6.956993  1116A      6.973575  1117A      6.974098  
    1118A      6.983953  1119A      6.984600  1120A      7.000474  
    1121A      7.013894  1122A      7.018795  1123A      7.026838  
    1124A      7.031071  1125A      7.039170  1126A      7.045075  
    1127A      7.057477  1128A      7.080414  1129A      7.153934  
    1130A      7.191391  1131A      7.225287  1132A      7.238418  
    1133A      7.240328  1134A      7.252829  1135A      7.258706  
    1136A      7.275535  1137A      7.287391  1138A      7.296510  
    1139A      7.299523  1140A      7.339273  1141A      7.340964  
    1142A      7.347049  1143A      7.350298  1144A      7.354016  
    1145A      7.356717  1146A      7.358681  1147A      7.366435  
    1148A      7.390990  1149A      7.393703  1150A      7.396478  
    1151A      7.407061  1152A      7.417684  1153A      7.468821  
    1154A      7.503315  1155A      7.522912  1156A      7.529077  
    1157A      7.534898  1158A      7.535959  1159A      7.538961  
    1160A      7.555043  1161A      7.559917  1162A      7.571007  
    1163A      7.586803  1164A      7.603423  1165A      7.629331  
    1166A      7.648291  1167A      7.690499  1168A      7.754124  
    1169A      7.780172  1170A      7.806163  1171A      7.849498  
    1172A      7.850920  1173A      7.885391  1174A      8.122357  
    1175A      8.148626  1176A      8.169815  1177A     10.011128  
    1178A     10.215067  1179A     10.349891  1180A     10.558509  
    1181A     10.682037  1182A     10.699493  1183A     10.786469  
    1184A     12.138302  1185A     12.157839  1186A     12.174931  
    1187A     12.643835  1188A     13.014353  1189A     13.118823  
    1190A     13.145232  1191A     13.174930  1192A     13.436488  
    1193A     13.568687  1194A     13.582367  1195A     13.718611  
    1196A     13.754047  1197A     13.833989  1198A     13.981484  
    1199A     14.062924  1200A     14.230618  1201A     14.300032  
    1202A     14.496908  1203A     14.699221  1204A     14.882704  

    Final Occupation by Irrep:
              A 
    DOCC [   109 ]

  Energy converged.

  @DF-RHF Final Energy: -1512.13124366266788

   => Energetics <=

    Nuclear Repulsion Energy =           2605.3050234228217050
    One-Electron Energy =               -7258.4975366944909183
    Two-Electron Energy =                3141.0612696090020108
    Total Energy =                      -1512.1312436626676572



Properties will be evaluated at   0.000000,   0.000000,   0.000000 Bohr

Properties computed using the SCF density matrix

  Nuclear Dipole Moment: (a.u.)
     X:     3.6080      Y:     8.5823      Z:    -2.3649

  Electronic Dipole Moment: (a.u.)
     X:    -2.9229      Y:    -7.9110      Z:     3.6192

  Dipole Moment: (a.u.)
     X:     0.6851      Y:     0.6712      Z:     1.2544     Total:     1.5790

  Dipole Moment: (Debye)
     X:     1.7413      Y:     1.7061      Z:     3.1883     Total:     4.0135


*** tstop() called on hex15 at Thu Mar  1 17:19:20 2018
Module time:
	user time   =    1170.32 seconds =      19.51 minutes
	system time =       7.87 seconds =       0.13 minutes
	total time  =        504 seconds =       8.40 minutes
Total time:
	user time   =    1170.32 seconds =      19.51 minutes
	system time =       7.87 seconds =       0.13 minutes
	total time  =        504 seconds =       8.40 minutes

*** Psi4 exiting successfully. Buy a developer a beer!
