
    -----------------------------------------------------------------------
          Psi4: An Open-Source Ab Initio Electronic Structure Package
                               Psi4 1.2a1.dev875 

                         Git: Rev {symm_JK} 0ea9481 dirty


    R. M. Parrish, L. A. Burns, D. G. A. Smith, A. C. Simmonett,
    A. E. DePrince III, E. G. Hohenstein, U. Bozkaya, A. Yu. Sokolov,
    R. Di Remigio, R. M. Richard, J. F. Gonthier, A. M. James,
    H. R. McAlexander, A. Kumar, M. Saitow, X. Wang, B. P. Pritchard,
    P. Verma, H. F. Schaefer III, K. Patkowski, R. A. King, E. F. Valeev,
    F. A. Evangelista, J. M. Turney, T. D. Crawford, and C. D. Sherrill,
    J. Chem. Theory Comput. 13(7) pp 3185--3197 (2017).
    (doi: 10.1021/acs.jctc.7b00174)

    -----------------------------------------------------------------------


    Psi4 started on: Wednesday, 07 March 2018 02:11PM

    Process ID:   8581
    PSIDATADIR: /theoryfs2/ds/schieber/Gits/mspsi4/objdir3/stage/usr/local/psi4/share/psi4
    Memory:     500.0 MiB
    Threads:    6
    
  ==> Input File <==

--------------------------------------------------------------------------
memory 60 Gb

molecule protein_54 {
0 1
 N   18.626  30.444   6.627
 C   17.853  29.516   5.837
 C   16.945  30.292   4.886
 O   15.843  30.678   5.237
 C   17.047  28.642   6.811
 C   16.316  27.513   6.146
 O   16.236  27.458   4.905
 O   15.762  26.696   6.882
 N   17.407  27.054  -1.437
 C   17.227  26.751  -0.026
 C   18.555  26.446   0.653
 O   19.003  25.309   0.692
 C   16.258  25.572   0.084
 C   15.759  25.336   1.493
 O   16.399  25.780   2.453
 O   14.731  24.675   1.645
 N   19.106  26.199   3.688
 C   18.957  25.372   4.876
 C   18.845  23.903   4.520
 O   18.660  23.054   5.417
 N   20.536  20.559   2.918
 C   21.779  19.912   2.496
 C   21.693  19.374   1.107
 O   22.642  19.502   0.361
 C   22.169  18.827   3.447
 C   22.272  19.337   4.844
 O   22.714  20.482   5.029
 O   21.836  18.647   5.778
 H   18.180  30.990   7.295
 H   18.510  28.835   5.249
 H   16.336  29.276   7.377
 H   17.778  28.186   7.516
 H   15.845  26.702   7.843
 H   17.860  26.421  -2.023
 H   16.724  27.595   0.500
 H   16.724  24.663  -0.337
 H   15.363  25.845  -0.519
 H   16.737  25.171   3.109
 H   18.314  26.771   3.377
 H   18.015  25.631   5.391
 H   19.792  25.567   5.577
 H   19.976  20.073   3.597
 H   22.602  20.664   2.537
 H   23.175  18.459   3.144
 H   21.465  17.966   3.392
 H   21.492  17.752   5.634
 H   19.646  30.419   6.619
 H   17.295  30.415   3.850
 H   16.947  27.858  -1.864
 H   19.060  27.284   1.155
 H   20.034  26.347   3.290
 H   18.824  23.654   3.449
 H   20.197  21.395   2.443
 H   20.727  18.956   0.786
}

set {
basis aug-cc-pvqz
scf_type df
guess sad
DF_SCF_TYPE SYMM_JK
}

energy('HF')
--------------------------------------------------------------------------

  Memory set to  55.879 GiB by Python driver.

*** tstart() called on hex15
*** at Wed Mar  7 14:11:23 2018

   => Loading Basis Set <=

    Name: AUG-CC-PVQZ
    Role: ORBITAL
    Keyword: BASIS
    atoms 1, 9, 17, 21                                entry N          line   359 file /theoryfs2/ds/schieber/Gits/mspsi4/objdir3/stage/usr/local/psi4/share/psi4/basis/aug-cc-pvqz.gbs 
    atoms 2-3, 5-6, 10-11, 13-14, 18-19, 22-23, 25-26 entry C          line   299 file /theoryfs2/ds/schieber/Gits/mspsi4/objdir3/stage/usr/local/psi4/share/psi4/basis/aug-cc-pvqz.gbs 
    atoms 4, 7-8, 12, 15-16, 20, 24, 27-28            entry O          line   419 file /theoryfs2/ds/schieber/Gits/mspsi4/objdir3/stage/usr/local/psi4/share/psi4/basis/aug-cc-pvqz.gbs 
    atoms 29-54                                       entry H          line    36 file /theoryfs2/ds/schieber/Gits/mspsi4/objdir3/stage/usr/local/psi4/share/psi4/basis/aug-cc-pvqz.gbs 


         ---------------------------------------------------------
                                   SCF
            by Justin Turney, Rob Parrish, Andy Simmonett
                             and Daniel Smith
                              RHF Reference
                        6 Threads,  57220 MiB Core
         ---------------------------------------------------------

  ==> Geometry <==

    Molecular point group: c1
    Full point group: C1

    Geometry (in Angstrom), charge = 0, multiplicity = 1:

       Center              X                  Y                   Z               Mass       
    ------------   -----------------  -----------------  -----------------  -----------------
           N          0.020074539305     5.686424476598     3.129539240050    14.003074004780
           C         -0.752925460695     4.758424476598     2.339539240050    12.000000000000
           C         -1.660925460695     5.534424476598     1.388539240050    12.000000000000
           O         -2.762925460695     5.920424476598     1.739539240050    15.994914619560
           C         -1.558925460695     3.884424476598     3.313539240050    12.000000000000
           C         -2.289925460695     2.755424476598     2.648539240050    12.000000000000
           O         -2.369925460695     2.700424476598     1.407539240050    15.994914619560
           O         -2.843925460695     1.938424476598     3.384539240050    15.994914619560
           N         -1.198925460695     2.296424476598    -4.934460759950    14.003074004780
           C         -1.378925460695     1.993424476598    -3.523460759950    12.000000000000
           C         -0.050925460695     1.688424476598    -2.844460759950    12.000000000000
           O          0.397074539305     0.551424476598    -2.805460759950    15.994914619560
           C         -2.347925460695     0.814424476598    -3.413460759950    12.000000000000
           C         -2.846925460695     0.578424476598    -2.004460759950    12.000000000000
           O         -2.206925460695     1.022424476598    -1.044460759950    15.994914619560
           O         -3.874925460695    -0.082575523402    -1.852460759950    15.994914619560
           N          0.500074539305     1.441424476598     0.190539240050    14.003074004780
           C          0.351074539305     0.614424476598     1.378539240050    12.000000000000
           C          0.239074539305    -0.854575523402     1.022539240050    12.000000000000
           O          0.054074539305    -1.703575523402     1.919539240050    15.994914619560
           N          1.930074539305    -4.198575523402    -0.579460759950    14.003074004780
           C          3.173074539305    -4.845575523402    -1.001460759950    12.000000000000
           C          3.087074539305    -5.383575523402    -2.390460759950    12.000000000000
           O          4.036074539305    -5.255575523402    -3.136460759950    15.994914619560
           C          3.563074539305    -5.930575523402    -0.050460759950    12.000000000000
           C          3.666074539305    -5.420575523402     1.346539240050    12.000000000000
           O          4.108074539305    -4.275575523402     1.531539240050    15.994914619560
           O          3.230074539305    -6.110575523402     2.280539240050    15.994914619560
           H         -0.425925460695     6.232424476598     3.797539240050     1.007825032070
           H         -0.095925460695     4.077424476598     1.751539240050     1.007825032070
           H         -2.269925460695     4.518424476598     3.879539240050     1.007825032070
           H         -0.827925460695     3.428424476598     4.018539240050     1.007825032070
           H         -2.760925460695     1.944424476598     4.345539240050     1.007825032070
           H         -0.745925460695     1.663424476598    -5.520460759950     1.007825032070
           H         -1.881925460695     2.837424476598    -2.997460759950     1.007825032070
           H         -1.881925460695    -0.094575523402    -3.834460759950     1.007825032070
           H         -3.242925460695     1.087424476598    -4.016460759950     1.007825032070
           H         -1.868925460695     0.413424476598    -0.388460759950     1.007825032070
           H         -0.291925460695     2.013424476598    -0.120460759950     1.007825032070
           H         -0.590925460695     0.873424476598     1.893539240050     1.007825032070
           H          1.186074539305     0.809424476598     2.079539240050     1.007825032070
           H          1.370074539305    -4.684575523402     0.099539240050     1.007825032070
           H          3.996074539305    -4.093575523402    -0.960460759950     1.007825032070
           H          4.569074539305    -6.298575523402    -0.353460759950     1.007825032070
           H          2.859074539305    -6.791575523402    -0.105460759950     1.007825032070
           H          2.886074539305    -7.005575523402     2.136539240050     1.007825032070
           H          1.040074539305     5.661424476598     3.121539240050     1.007825032070
           H         -1.310925460695     5.657424476598     0.352539240050     1.007825032070
           H         -1.658925460695     3.100424476598    -5.361460759950     1.007825032070
           H          0.454074539305     2.526424476598    -2.342460759950     1.007825032070
           H          1.428074539305     1.589424476598    -0.207460759950     1.007825032070
           H          0.218074539305    -1.103575523402    -0.048460759950     1.007825032070
           H          1.591074539305    -3.362575523402    -1.054460759950     1.007825032070
           H          2.121074539305    -5.801575523402    -2.711460759950     1.007825032070

  Running in c1 symmetry.

  Rotational constants: A =      0.00569  B =      0.00205  C =      0.00170 [cm^-1]
  Rotational constants: A =    170.63320  B =     61.47394  C =     50.92296 [MHz]
  Nuclear repulsion = 2605.305023422821705

  Charge       = 0
  Multiplicity = 1
  Electrons    = 218
  Nalpha       = 109
  Nbeta        = 109

  ==> Algorithm <==

  SCF Algorithm Type is DF.
  DIIS enabled.
  MOM disabled.
  Fractional occupation disabled.
  Guess Type is SAD.
  Energy threshold   = 1.00e-06
  Density threshold  = 1.00e-06
  Integral threshold = 0.00e+00

  ==> Primary Basis <==

  Basis Set: AUG-CC-PVQZ
    Blend: AUG-CC-PVQZ
    Number of shells: 924
    Number of basis function: 3436
    Number of Cartesian functions: 4370
    Spherical Harmonics?: true
    Max angular momentum: 4

   => Loading Basis Set <=

    Name: (AUG-CC-PVQZ AUX)
    Role: JKFIT
    Keyword: DF_BASIS_SCF
    atoms 1, 9, 17, 21                                entry N          line   248 file /theoryfs2/ds/schieber/Gits/mspsi4/objdir3/stage/usr/local/psi4/share/psi4/basis/aug-cc-pvqz-jkfit.gbs 
    atoms 2-3, 5-6, 10-11, 13-14, 18-19, 22-23, 25-26 entry C          line   178 file /theoryfs2/ds/schieber/Gits/mspsi4/objdir3/stage/usr/local/psi4/share/psi4/basis/aug-cc-pvqz-jkfit.gbs 
    atoms 4, 7-8, 12, 15-16, 20, 24, 27-28            entry O          line   318 file /theoryfs2/ds/schieber/Gits/mspsi4/objdir3/stage/usr/local/psi4/share/psi4/basis/aug-cc-pvqz-jkfit.gbs 
    atoms 29-54                                       entry H          line    70 file /theoryfs2/ds/schieber/Gits/mspsi4/objdir3/stage/usr/local/psi4/share/psi4/basis/aug-cc-pvqz-jkfit.gbs 

  ==> Pre-Iterations <==

   -------------------------------------------------------
    Irrep   Nso     Nmo     Nalpha   Nbeta   Ndocc  Nsocc
   -------------------------------------------------------
     A       3436    3436       0       0       0       0
   -------------------------------------------------------
    Total    3436    3436     109     109     109       0
   -------------------------------------------------------

  ==> Integral Setup <==


    ==> DF_Helper memory announcement <==
        Turning off in-core AOs.  DF_Helper needs at least (383.419GB), but it only got (45GB)

    ==> DF_Helper <==
      nao           = 3436
      naux          = 5952
      Scwarz cutoff = 1.000000E-12
      mem (doubles) = 5625000000
      nthreads      = 6
      Algorithm     = STORE
      AO_core?      = 0
      MO_core?      = 0
      hold metric   = 0
      metric power  = -5.000000E-01
  Fitting condition = 1.000000E-12
  Mask sparsity (%) = (46.091409)


  Minimum eigenvalue in the overlap matrix is 3.7397819978E-07.
  Using Symmetric Orthogonalization.

  SCF Guess: Superposition of Atomic Densities via on-the-fly atomic UHF.

  ==> Iterations <==

                           Total Energy        Delta E     RMS |[F,P]|

   @DF-RHF iter   0: -1521.63657950821107   -1.52164e+03   7.10257e-03 
   @DF-RHF iter   1: -1511.14606778754705    1.04905e+01   9.93215e-04 
   @DF-RHF iter   2: -1511.81973885757293   -6.73671e-01   7.44252e-04 DIIS
   @DF-RHF iter   3: -1512.20622187118011   -3.86483e-01   1.43434e-04 DIIS
   @DF-RHF iter   4: -1512.24225550548363   -3.60336e-02   5.45330e-05 DIIS
   @DF-RHF iter   5: -1512.24833379174697   -6.07829e-03   2.39940e-05 DIIS
   @DF-RHF iter   6: -1512.24989315263770   -1.55936e-03   1.06854e-05 DIIS
   @DF-RHF iter   7: -1512.25027032921525   -3.77177e-04   4.84750e-06 DIIS
   @DF-RHF iter   8: -1512.25034214166089   -7.18124e-05   2.02225e-06 DIIS
   @DF-RHF iter   9: -1512.25035991656978   -1.77749e-05   9.81325e-07 DIIS
   @DF-RHF iter  10: -1512.25036524523921   -5.32867e-06   5.04079e-07 DIIS
   @DF-RHF iter  11: -1512.25036681263259   -1.56739e-06   2.03092e-07 DIIS
   @DF-RHF iter  12: -1512.25036704080458   -2.28172e-07   8.77905e-08 DIIS

  ==> Post-Iterations <==

    Orbital Energies (a.u.)
    -----------------------

    Doubly Occupied:                                                      

       1A    -20.645497     2A    -20.635983     3A    -20.603862  
       4A    -20.568917     5A    -20.561276     6A    -20.558768  
       7A    -20.558126     8A    -20.540362     9A    -20.520006  
      10A    -20.517034    11A    -15.559978    12A    -15.553971  
      13A    -15.549369    14A    -15.543990    15A    -11.397891  
      16A    -11.383127    17A    -11.368088    18A    -11.346165  
      19A    -11.339129    20A    -11.337130    21A    -11.327159  
      22A    -11.297823    23A    -11.292068    24A    -11.282311  
      25A    -11.276564    26A    -11.265857    27A    -11.265799  
      28A    -11.240241    29A     -1.529707    30A     -1.513535  
      31A     -1.501389    32A     -1.399151    33A     -1.393541  
      34A     -1.393029    35A     -1.369116    36A     -1.359250  
      37A     -1.340763    38A     -1.335123    39A     -1.215946  
      40A     -1.204710    41A     -1.194677    42A     -1.186721  
      43A     -1.057547    44A     -1.056666    45A     -1.045887  
      46A     -0.966236    47A     -0.951963    48A     -0.941384  
      49A     -0.939522    50A     -0.908755    51A     -0.891859  
      52A     -0.877570    53A     -0.811695    54A     -0.804928  
      55A     -0.799925    56A     -0.797799    57A     -0.749873  
      58A     -0.734928    59A     -0.734449    60A     -0.720806  
      61A     -0.713351    62A     -0.708040    63A     -0.697730  
      64A     -0.695782    65A     -0.690453    66A     -0.687707  
      67A     -0.680886    68A     -0.668243    69A     -0.666972  
      70A     -0.664355    71A     -0.661082    72A     -0.659436  
      73A     -0.656243    74A     -0.645749    75A     -0.635874  
      76A     -0.633273    77A     -0.632333    78A     -0.631188  
      79A     -0.624999    80A     -0.611450    81A     -0.592042  
      82A     -0.579098    83A     -0.575580    84A     -0.568552  
      85A     -0.565019    86A     -0.561210    87A     -0.551323  
      88A     -0.534726    89A     -0.533772    90A     -0.532782  
      91A     -0.523497    92A     -0.517617    93A     -0.508958  
      94A     -0.502502    95A     -0.489931    96A     -0.476510  
      97A     -0.464598    98A     -0.460803    99A     -0.459346  
     100A     -0.450878   101A     -0.446849   102A     -0.445328  
     103A     -0.442092   104A     -0.437800   105A     -0.434127  
     106A     -0.388394   107A     -0.383898   108A     -0.380000  
     109A     -0.377751  

    Virtual:                                                              

     110A      0.011066   111A      0.014796   112A      0.016751  
     113A      0.022491   114A      0.029349   115A      0.030743  
     116A      0.034148   117A      0.036846   118A      0.039501  
     119A      0.042739   120A      0.044930   121A      0.045579  
     122A      0.051493   123A      0.053772   124A      0.054729  
     125A      0.057701   126A      0.060463   127A      0.063108  
     128A      0.065364   129A      0.068196   130A      0.071818  
     131A      0.073521   132A      0.076178   133A      0.077330  
     134A      0.080621   135A      0.082735   136A      0.083381  
     137A      0.085227   138A      0.086718   139A      0.089165  
     140A      0.090832   141A      0.091215   142A      0.094087  
     143A      0.095068   144A      0.097498   145A      0.101526  
     146A      0.101879   147A      0.104129   148A      0.105289  
     149A      0.108611   150A      0.109841   151A      0.110443  
     152A      0.112192   153A      0.114822   154A      0.116508  
     155A      0.116769   156A      0.119055   157A      0.121607  
     158A      0.122868   159A      0.123520   160A      0.125197  
     161A      0.126013   162A      0.127620   163A      0.129632  
     164A      0.130639   165A      0.132638   166A      0.133844  
     167A      0.134582   168A      0.137069   169A      0.139116  
     170A      0.141007   171A      0.141847   172A      0.144476  
     173A      0.145804   174A      0.146318   175A      0.148624  
     176A      0.151573   177A      0.153109   178A      0.156431  
     179A      0.158135   180A      0.158255   181A      0.160354  
     182A      0.162563   183A      0.164957   184A      0.165566  
     185A      0.167858   186A      0.168270   187A      0.169135  
     188A      0.172665   189A      0.175051   190A      0.176292  
     191A      0.177770   192A      0.180078   193A      0.183568  
     194A      0.185223   195A      0.187410   196A      0.187876  
     197A      0.189555   198A      0.191893   199A      0.194421  
     200A      0.196521   201A      0.199149   202A      0.201127  
     203A      0.202873   204A      0.203576   205A      0.205153  
     206A      0.206373   207A      0.209173   208A      0.213078  
     209A      0.213540   210A      0.215486   211A      0.215843  
     212A      0.218031   213A      0.219141   214A      0.222319  
     215A      0.223086   216A      0.225473   217A      0.227817  
     218A      0.229583   219A      0.230456   220A      0.232373  
     221A      0.235909   222A      0.237167   223A      0.238718  
     224A      0.239987   225A      0.242460   226A      0.243880  
     227A      0.245999   228A      0.248823   229A      0.249000  
     230A      0.251943   231A      0.253150   232A      0.254328  
     233A      0.257648   234A      0.259275   235A      0.260617  
     236A      0.263572   237A      0.263816   238A      0.265285  
     239A      0.266533   240A      0.267458   241A      0.269353  
     242A      0.270692   243A      0.272637   244A      0.274773  
     245A      0.276108   246A      0.276755   247A      0.278269  
     248A      0.279127   249A      0.280321   250A      0.283026  
     251A      0.283579   252A      0.284861   253A      0.287610  
     254A      0.289098   255A      0.289662   256A      0.291307  
     257A      0.295407   258A      0.298473   259A      0.298656  
     260A      0.300280   261A      0.301619   262A      0.302247  
     263A      0.304575   264A      0.307212   265A      0.309325  
     266A      0.310010   267A      0.310256   268A      0.314078  
     269A      0.314608   270A      0.318446   271A      0.318907  
     272A      0.319542   273A      0.319943   274A      0.324411  
     275A      0.325978   276A      0.326833   277A      0.327046  
     278A      0.329525   279A      0.330248   280A      0.331537  
     281A      0.333063   282A      0.335053   283A      0.338084  
     284A      0.340227   285A      0.342044   286A      0.342866  
     287A      0.345573   288A      0.346441   289A      0.348695  
     290A      0.351321   291A      0.352695   292A      0.353819  
     293A      0.357887   294A      0.358946   295A      0.361266  
     296A      0.362148   297A      0.363052   298A      0.364245  
     299A      0.366682   300A      0.367497   301A      0.370719  
     302A      0.372502   303A      0.372892   304A      0.374837  
     305A      0.376024   306A      0.376552   307A      0.379657  
     308A      0.382936   309A      0.383087   310A      0.384918  
     311A      0.385432   312A      0.388599   313A      0.389168  
     314A      0.391578   315A      0.392039   316A      0.393547  
     317A      0.394511   318A      0.395980   319A      0.399076  
     320A      0.400426   321A      0.401415   322A      0.403495  
     323A      0.404155   324A      0.405006   325A      0.408671  
     326A      0.409521   327A      0.412412   328A      0.414247  
     329A      0.416868   330A      0.417920   331A      0.418565  
     332A      0.419199   333A      0.422696   334A      0.425238  
     335A      0.426412   336A      0.428662   337A      0.429347  
     338A      0.430951   339A      0.432167   340A      0.434265  
     341A      0.435350   342A      0.436292   343A      0.438331  
     344A      0.440440   345A      0.443793   346A      0.444951  
     347A      0.445363   348A      0.447962   349A      0.448470  
     350A      0.450256   351A      0.452560   352A      0.453701  
     353A      0.455100   354A      0.457732   355A      0.459278  
     356A      0.460512   357A      0.460919   358A      0.463901  
     359A      0.464034   360A      0.467279   361A      0.467697  
     362A      0.469968   363A      0.470645   364A      0.473116  
     365A      0.474778   366A      0.475431   367A      0.476535  
     368A      0.478761   369A      0.479581   370A      0.480980  
     371A      0.483524   372A      0.485755   373A      0.486766  
     374A      0.487909   375A      0.487981   376A      0.490409  
     377A      0.491607   378A      0.493422   379A      0.495804  
     380A      0.498793   381A      0.499831   382A      0.501649  
     383A      0.502920   384A      0.504877   385A      0.505455  
     386A      0.506374   387A      0.508179   388A      0.510883  
     389A      0.511653   390A      0.514060   391A      0.518010  
     392A      0.521960   393A      0.522273   394A      0.523340  
     395A      0.525893   396A      0.526989   397A      0.528214  
     398A      0.529244   399A      0.530538   400A      0.532972  
     401A      0.534971   402A      0.536613   403A      0.537910  
     404A      0.540874   405A      0.543047   406A      0.544281  
     407A      0.544410   408A      0.546177   409A      0.550599  
     410A      0.551549   411A      0.552241   412A      0.554637  
     413A      0.557756   414A      0.558436   415A      0.560658  
     416A      0.563672   417A      0.566757   418A      0.567157  
     419A      0.570295   420A      0.570508   421A      0.572553  
     422A      0.574497   423A      0.577214   424A      0.579970  
     425A      0.581236   426A      0.582262   427A      0.583660  
     428A      0.585158   429A      0.586726   430A      0.588106  
     431A      0.591504   432A      0.592674   433A      0.593555  
     434A      0.595663   435A      0.596449   436A      0.599281  
     437A      0.601935   438A      0.603305   439A      0.604079  
     440A      0.606243   441A      0.611497   442A      0.613425  
     443A      0.615017   444A      0.616042   445A      0.617008  
     446A      0.618477   447A      0.621955   448A      0.623188  
     449A      0.625506   450A      0.627539   451A      0.629475  
     452A      0.630711   453A      0.633091   454A      0.634159  
     455A      0.635933   456A      0.636202   457A      0.641476  
     458A      0.642753   459A      0.644492   460A      0.646526  
     461A      0.648487   462A      0.650395   463A      0.653605  
     464A      0.655079   465A      0.656648   466A      0.659271  
     467A      0.660224   468A      0.661754   469A      0.662584  
     470A      0.665234   471A      0.667807   472A      0.668064  
     473A      0.669630   474A      0.671496   475A      0.673616  
     476A      0.677016   477A      0.677898   478A      0.680038  
     479A      0.681471   480A      0.682233   481A      0.684848  
     482A      0.684989   483A      0.688741   484A      0.691057  
     485A      0.692256   486A      0.693994   487A      0.696725  
     488A      0.697084   489A      0.699469   490A      0.701676  
     491A      0.703155   492A      0.704395   493A      0.706725  
     494A      0.707099   495A      0.709553   496A      0.710875  
     497A      0.713026   498A      0.715590   499A      0.717344  
     500A      0.719438   501A      0.720202   502A      0.722792  
     503A      0.724985   504A      0.727466   505A      0.728716  
     506A      0.729780   507A      0.732113   508A      0.734328  
     509A      0.735990   510A      0.737547   511A      0.738647  
     512A      0.740651   513A      0.743220   514A      0.744570  
     515A      0.746630   516A      0.747589   517A      0.750237  
     518A      0.752149   519A      0.753729   520A      0.756285  
     521A      0.756559   522A      0.758796   523A      0.760627  
     524A      0.762237   525A      0.763794   526A      0.764375  
     527A      0.766524   528A      0.770114   529A      0.770734  
     530A      0.773043   531A      0.774249   532A      0.776795  
     533A      0.778445   534A      0.780926   535A      0.782204  
     536A      0.784685   537A      0.785885   538A      0.787004  
     539A      0.789098   540A      0.790646   541A      0.792821  
     542A      0.794067   543A      0.796797   544A      0.798099  
     545A      0.799388   546A      0.801387   547A      0.802718  
     548A      0.805946   549A      0.808514   550A      0.809206  
     551A      0.810361   552A      0.811169   553A      0.813109  
     554A      0.814203   555A      0.815594   556A      0.819526  
     557A      0.820026   558A      0.820822   559A      0.822824  
     560A      0.826077   561A      0.826752   562A      0.830105  
     563A      0.831703   564A      0.834976   565A      0.837286  
     566A      0.837571   567A      0.838968   568A      0.842020  
     569A      0.842308   570A      0.845201   571A      0.846216  
     572A      0.849393   573A      0.851658   574A      0.853574  
     575A      0.854302   576A      0.855367   577A      0.857996  
     578A      0.860873   579A      0.861263   580A      0.863069  
     581A      0.863972   582A      0.865433   583A      0.868727  
     584A      0.869313   585A      0.872904   586A      0.874524  
     587A      0.875139   588A      0.876156   589A      0.878651  
     590A      0.879599   591A      0.879871   592A      0.881756  
     593A      0.885572   594A      0.887759   595A      0.888257  
     596A      0.890008   597A      0.891995   598A      0.894378  
     599A      0.896677   600A      0.898943   601A      0.899542  
     602A      0.900636   603A      0.904070   604A      0.907693  
     605A      0.908645   606A      0.909528   607A      0.913934  
     608A      0.914638   609A      0.915047   610A      0.917526  
     611A      0.920143   612A      0.920758   613A      0.921540  
     614A      0.923759   615A      0.925456   616A      0.927260  
     617A      0.928729   618A      0.930774   619A      0.933000  
     620A      0.934416   621A      0.936277   622A      0.937011  
     623A      0.938271   624A      0.939622   625A      0.944142  
     626A      0.945959   627A      0.948400   628A      0.950142  
     629A      0.951789   630A      0.952064   631A      0.954463  
     632A      0.956395   633A      0.957936   634A      0.959265  
     635A      0.961474   636A      0.964552   637A      0.965134  
     638A      0.967634   639A      0.968488   640A      0.970404  
     641A      0.971968   642A      0.975767   643A      0.977850  
     644A      0.979193   645A      0.981653   646A      0.983848  
     647A      0.985071   648A      0.985979   649A      0.990529  
     650A      0.993344   651A      0.995771   652A      0.996722  
     653A      0.999122   654A      0.999994   655A      1.003612  
     656A      1.004584   657A      1.006534   658A      1.007638  
     659A      1.008947   660A      1.011308   661A      1.013603  
     662A      1.015758   663A      1.018343   664A      1.018952  
     665A      1.020525   666A      1.022163   667A      1.023739  
     668A      1.026716   669A      1.027919   670A      1.029117  
     671A      1.033126   672A      1.034658   673A      1.035685  
     674A      1.038259   675A      1.039768   676A      1.042443  
     677A      1.044976   678A      1.047622   679A      1.049772  
     680A      1.049872   681A      1.050168   682A      1.053304  
     683A      1.055848   684A      1.058707   685A      1.060762  
     686A      1.062251   687A      1.064971   688A      1.066715  
     689A      1.068614   690A      1.069476   691A      1.072685  
     692A      1.073843   693A      1.078536   694A      1.080198  
     695A      1.082366   696A      1.085298   697A      1.085880  
     698A      1.088660   699A      1.089346   700A      1.091576  
     701A      1.095019   702A      1.095688   703A      1.098386  
     704A      1.100622   705A      1.103657   706A      1.106672  
     707A      1.108921   708A      1.109847   709A      1.111494  
     710A      1.113334   711A      1.116826   712A      1.117695  
     713A      1.118164   714A      1.123144   715A      1.123392  
     716A      1.125234   717A      1.126465   718A      1.127420  
     719A      1.128555   720A      1.130219   721A      1.131005  
     722A      1.134771   723A      1.136515   724A      1.139147  
     725A      1.140438   726A      1.141339   727A      1.145423  
     728A      1.146128   729A      1.149413   730A      1.151138  
     731A      1.151702   732A      1.156111   733A      1.156688  
     734A      1.159964   735A      1.162561   736A      1.165510  
     737A      1.167224   738A      1.167775   739A      1.171920  
     740A      1.174367   741A      1.175961   742A      1.178294  
     743A      1.179507   744A      1.182146   745A      1.184961  
     746A      1.186481   747A      1.187576   748A      1.190952  
     749A      1.195651   750A      1.197100   751A      1.198345  
     752A      1.199789   753A      1.200591   754A      1.201682  
     755A      1.205586   756A      1.206297   757A      1.209014  
     758A      1.210950   759A      1.212161   760A      1.215883  
     761A      1.217048   762A      1.219357   763A      1.222839  
     764A      1.223153   765A      1.227107   766A      1.227614  
     767A      1.229169   768A      1.230602   769A      1.231912  
     770A      1.235785   771A      1.236295   772A      1.239677  
     773A      1.240167   774A      1.242720   775A      1.244500  
     776A      1.246342   777A      1.248778   778A      1.249643  
     779A      1.254053   780A      1.256325   781A      1.256435  
     782A      1.258703   783A      1.259370   784A      1.262234  
     785A      1.266217   786A      1.268420   787A      1.271177  
     788A      1.272768   789A      1.274066   790A      1.277103  
     791A      1.277682   792A      1.279474   793A      1.280105  
     794A      1.286090   795A      1.287691   796A      1.287999  
     797A      1.291037   798A      1.293186   799A      1.297274  
     800A      1.298879   801A      1.302135   802A      1.303167  
     803A      1.306129   804A      1.308219   805A      1.311796  
     806A      1.313856   807A      1.316009   808A      1.320217  
     809A      1.321102   810A      1.323294   811A      1.325666  
     812A      1.327740   813A      1.332184   814A      1.332557  
     815A      1.335853   816A      1.337364   817A      1.340081  
     818A      1.342269   819A      1.344653   820A      1.348790  
     821A      1.350114   822A      1.352790   823A      1.354202  
     824A      1.356059   825A      1.356757   826A      1.359182  
     827A      1.360103   828A      1.363714   829A      1.365056  
     830A      1.366209   831A      1.371882   832A      1.373383  
     833A      1.375121   834A      1.379554   835A      1.381301  
     836A      1.385669   837A      1.386155   838A      1.388165  
     839A      1.391196   840A      1.393409   841A      1.395348  
     842A      1.397124   843A      1.398103   844A      1.401699  
     845A      1.404232   846A      1.407876   847A      1.410022  
     848A      1.412590   849A      1.414013   850A      1.417344  
     851A      1.419346   852A      1.419636   853A      1.423892  
     854A      1.425491   855A      1.428118   856A      1.428985  
     857A      1.431856   858A      1.435572   859A      1.437172  
     860A      1.437638   861A      1.442553   862A      1.444214  
     863A      1.448233   864A      1.451583   865A      1.453034  
     866A      1.453720   867A      1.457902   868A      1.459274  
     869A      1.464077   870A      1.465133   871A      1.466109  
     872A      1.470768   873A      1.474174   874A      1.479033  
     875A      1.479856   876A      1.481882   877A      1.484370  
     878A      1.487521   879A      1.489938   880A      1.490775  
     881A      1.492962   882A      1.495870   883A      1.497947  
     884A      1.499616   885A      1.502994   886A      1.503897  
     887A      1.508937   888A      1.514169   889A      1.515532  
     890A      1.518370   891A      1.520373   892A      1.522769  
     893A      1.527281   894A      1.528915   895A      1.531150  
     896A      1.533414   897A      1.536144   898A      1.536702  
     899A      1.541980   900A      1.542851   901A      1.544094  
     902A      1.547827   903A      1.548596   904A      1.552032  
     905A      1.553554   906A      1.555084   907A      1.556370  
     908A      1.557763   909A      1.561439   910A      1.562335  
     911A      1.565976   912A      1.567091   913A      1.571042  
     914A      1.572659   915A      1.574122   916A      1.579012  
     917A      1.581030   918A      1.581350   919A      1.584482  
     920A      1.585978   921A      1.589583   922A      1.591785  
     923A      1.594600   924A      1.596023   925A      1.599597  
     926A      1.602366   927A      1.603541   928A      1.606458  
     929A      1.609706   930A      1.611666   931A      1.615379  
     932A      1.616395   933A      1.618515   934A      1.622209  
     935A      1.624067   936A      1.625111   937A      1.628220  
     938A      1.630448   939A      1.633687   940A      1.635080  
     941A      1.640313   942A      1.641069   943A      1.644624  
     944A      1.645576   945A      1.647789   946A      1.648264  
     947A      1.653069   948A      1.654161   949A      1.658133  
     950A      1.664178   951A      1.664290   952A      1.667535  
     953A      1.669635   954A      1.674103   955A      1.675715  
     956A      1.676377   957A      1.677777   958A      1.682014  
     959A      1.686718   960A      1.687430   961A      1.688192  
     962A      1.690995   963A      1.693939   964A      1.696189  
     965A      1.699555   966A      1.701872   967A      1.702536  
     968A      1.704826   969A      1.709090   970A      1.712471  
     971A      1.715316   972A      1.716221   973A      1.717744  
     974A      1.722894   975A      1.724900   976A      1.725320  
     977A      1.728924   978A      1.731384   979A      1.734713  
     980A      1.735939   981A      1.736812   982A      1.739043  
     983A      1.742663   984A      1.744002   985A      1.747395  
     986A      1.749841   987A      1.751790   988A      1.753275  
     989A      1.756305   990A      1.758592   991A      1.761701  
     992A      1.762450   993A      1.765747   994A      1.770215  
     995A      1.772061   996A      1.773770   997A      1.776033  
     998A      1.779020   999A      1.782952  1000A      1.783414  
    1001A      1.784921  1002A      1.789261  1003A      1.792282  
    1004A      1.794810  1005A      1.797916  1006A      1.800198  
    1007A      1.801933  1008A      1.803208  1009A      1.805509  
    1010A      1.807238  1011A      1.811479  1012A      1.813232  
    1013A      1.815644  1014A      1.819419  1015A      1.820146  
    1016A      1.823290  1017A      1.823587  1018A      1.825830  
    1019A      1.827562  1020A      1.829923  1021A      1.835573  
    1022A      1.837436  1023A      1.837982  1024A      1.838597  
    1025A      1.842253  1026A      1.844642  1027A      1.847872  
    1028A      1.849387  1029A      1.851413  1030A      1.853707  
    1031A      1.855864  1032A      1.858227  1033A      1.861937  
    1034A      1.862030  1035A      1.863929  1036A      1.864434  
    1037A      1.868554  1038A      1.869785  1039A      1.872180  
    1040A      1.875131  1041A      1.876412  1042A      1.879953  
    1043A      1.881319  1044A      1.881841  1045A      1.883817  
    1046A      1.888273  1047A      1.890395  1048A      1.891942  
    1049A      1.892665  1050A      1.895986  1051A      1.897716  
    1052A      1.898926  1053A      1.904048  1054A      1.905442  
    1055A      1.910253  1056A      1.912010  1057A      1.912639  
    1058A      1.913864  1059A      1.914590  1060A      1.915904  
    1061A      1.920079  1062A      1.922343  1063A      1.924007  
    1064A      1.928776  1065A      1.930991  1066A      1.932058  
    1067A      1.934667  1068A      1.935725  1069A      1.938604  
    1070A      1.940140  1071A      1.943306  1072A      1.946100  
    1073A      1.947942  1074A      1.951633  1075A      1.953026  
    1076A      1.953976  1077A      1.954716  1078A      1.957866  
    1079A      1.960958  1080A      1.963752  1081A      1.966482  
    1082A      1.967615  1083A      1.969648  1084A      1.971543  
    1085A      1.974384  1086A      1.976457  1087A      1.977690  
    1088A      1.979112  1089A      1.980568  1090A      1.985214  
    1091A      1.987980  1092A      1.988180  1093A      1.991371  
    1094A      1.993937  1095A      1.996517  1096A      1.998047  
    1097A      1.999279  1098A      2.001850  1099A      2.003445  
    1100A      2.006505  1101A      2.007634  1102A      2.010714  
    1103A      2.015238  1104A      2.017885  1105A      2.018189  
    1106A      2.020524  1107A      2.022926  1108A      2.024203  
    1109A      2.025546  1110A      2.030253  1111A      2.032567  
    1112A      2.034092  1113A      2.036758  1114A      2.037191  
    1115A      2.039282  1116A      2.040861  1117A      2.044966  
    1118A      2.047894  1119A      2.051874  1120A      2.053541  
    1121A      2.056591  1122A      2.058877  1123A      2.062224  
    1124A      2.062438  1125A      2.065347  1126A      2.070674  
    1127A      2.071422  1128A      2.072713  1129A      2.073877  
    1130A      2.076514  1131A      2.079594  1132A      2.081658  
    1133A      2.082336  1134A      2.085734  1135A      2.086421  
    1136A      2.087991  1137A      2.091434  1138A      2.092850  
    1139A      2.095663  1140A      2.097382  1141A      2.098589  
    1142A      2.101130  1143A      2.105134  1144A      2.106436  
    1145A      2.110935  1146A      2.113194  1147A      2.113989  
    1148A      2.116255  1149A      2.117374  1150A      2.121563  
    1151A      2.122899  1152A      2.123761  1153A      2.126492  
    1154A      2.127606  1155A      2.130848  1156A      2.132184  
    1157A      2.133857  1158A      2.136302  1159A      2.138438  
    1160A      2.140432  1161A      2.143782  1162A      2.144405  
    1163A      2.146514  1164A      2.150226  1165A      2.152554  
    1166A      2.153507  1167A      2.155058  1168A      2.157924  
    1169A      2.161370  1170A      2.164780  1171A      2.166497  
    1172A      2.166711  1173A      2.170434  1174A      2.171065  
    1175A      2.175515  1176A      2.176774  1177A      2.177647  
    1178A      2.180914  1179A      2.182055  1180A      2.182875  
    1181A      2.185543  1182A      2.188499  1183A      2.189251  
    1184A      2.191758  1185A      2.194836  1186A      2.198000  
    1187A      2.200136  1188A      2.200586  1189A      2.201467  
    1190A      2.204165  1191A      2.205805  1192A      2.207765  
    1193A      2.209106  1194A      2.213952  1195A      2.214225  
    1196A      2.217276  1197A      2.219860  1198A      2.221580  
    1199A      2.222899  1200A      2.225946  1201A      2.227427  
    1202A      2.229589  1203A      2.231484  1204A      2.233392  
    1205A      2.235462  1206A      2.236014  1207A      2.238184  
    1208A      2.240679  1209A      2.241127  1210A      2.246398  
    1211A      2.247033  1212A      2.249315  1213A      2.250713  
    1214A      2.253377  1215A      2.256427  1216A      2.257978  
    1217A      2.259284  1218A      2.259638  1219A      2.263999  
    1220A      2.265723  1221A      2.266561  1222A      2.267802  
    1223A      2.270320  1224A      2.271464  1225A      2.272332  
    1226A      2.273944  1227A      2.274421  1228A      2.279237  
    1229A      2.282701  1230A      2.284347  1231A      2.286223  
    1232A      2.290898  1233A      2.292194  1234A      2.293301  
    1235A      2.295071  1236A      2.296508  1237A      2.298728  
    1238A      2.301693  1239A      2.302650  1240A      2.305503  
    1241A      2.306497  1242A      2.309455  1243A      2.311908  
    1244A      2.313917  1245A      2.317234  1246A      2.319165  
    1247A      2.320552  1248A      2.324357  1249A      2.326846  
    1250A      2.331680  1251A      2.332090  1252A      2.333113  
    1253A      2.337363  1254A      2.338167  1255A      2.338603  
    1256A      2.342469  1257A      2.346027  1258A      2.348527  
    1259A      2.350745  1260A      2.352045  1261A      2.354664  
    1262A      2.357010  1263A      2.357553  1264A      2.363296  
    1265A      2.364773  1266A      2.366265  1267A      2.366907  
    1268A      2.370062  1269A      2.370763  1270A      2.371683  
    1271A      2.373989  1272A      2.376817  1273A      2.379271  
    1274A      2.382031  1275A      2.382791  1276A      2.386726  
    1277A      2.387688  1278A      2.389317  1279A      2.390476  
    1280A      2.394749  1281A      2.396220  1282A      2.401071  
    1283A      2.405202  1284A      2.406143  1285A      2.409131  
    1286A      2.412947  1287A      2.414186  1288A      2.415393  
    1289A      2.416934  1290A      2.419091  1291A      2.419767  
    1292A      2.423257  1293A      2.424336  1294A      2.426246  
    1295A      2.429441  1296A      2.433991  1297A      2.437535  
    1298A      2.438708  1299A      2.441412  1300A      2.446537  
    1301A      2.448607  1302A      2.450722  1303A      2.454699  
    1304A      2.456342  1305A      2.457770  1306A      2.460870  
    1307A      2.461730  1308A      2.462235  1309A      2.466157  
    1310A      2.470728  1311A      2.471082  1312A      2.473979  
    1313A      2.476249  1314A      2.480026  1315A      2.480767  
    1316A      2.482047  1317A      2.485508  1318A      2.487374  
    1319A      2.490504  1320A      2.491464  1321A      2.494056  
    1322A      2.495545  1323A      2.498278  1324A      2.503213  
    1325A      2.507893  1326A      2.508219  1327A      2.509387  
    1328A      2.510572  1329A      2.513890  1330A      2.518488  
    1331A      2.519323  1332A      2.521930  1333A      2.526112  
    1334A      2.528066  1335A      2.530533  1336A      2.533421  
    1337A      2.535750  1338A      2.537258  1339A      2.540487  
    1340A      2.541321  1341A      2.543745  1342A      2.546699  
    1343A      2.550701  1344A      2.553667  1345A      2.555841  
    1346A      2.559077  1347A      2.559262  1348A      2.561819  
    1349A      2.563455  1350A      2.565416  1351A      2.567860  
    1352A      2.572312  1353A      2.573426  1354A      2.576148  
    1355A      2.580225  1356A      2.582689  1357A      2.587503  
    1358A      2.591114  1359A      2.593417  1360A      2.595946  
    1361A      2.597507  1362A      2.602895  1363A      2.604630  
    1364A      2.607472  1365A      2.608908  1366A      2.612547  
    1367A      2.615468  1368A      2.616925  1369A      2.623367  
    1370A      2.625737  1371A      2.626283  1372A      2.632365  
    1373A      2.633413  1374A      2.635453  1375A      2.636382  
    1376A      2.638469  1377A      2.641382  1378A      2.646147  
    1379A      2.650090  1380A      2.651007  1381A      2.655473  
    1382A      2.657704  1383A      2.660967  1384A      2.662888  
    1385A      2.666508  1386A      2.666964  1387A      2.669624  
    1388A      2.671654  1389A      2.674474  1390A      2.677695  
    1391A      2.681279  1392A      2.682244  1393A      2.688614  
    1394A      2.689168  1395A      2.690169  1396A      2.692547  
    1397A      2.694046  1398A      2.695876  1399A      2.699661  
    1400A      2.705241  1401A      2.706935  1402A      2.709308  
    1403A      2.712054  1404A      2.716291  1405A      2.723349  
    1406A      2.724421  1407A      2.725656  1408A      2.728233  
    1409A      2.734611  1410A      2.738025  1411A      2.740893  
    1412A      2.746955  1413A      2.747133  1414A      2.750108  
    1415A      2.752565  1416A      2.757222  1417A      2.760361  
    1418A      2.762017  1419A      2.763982  1420A      2.766579  
    1421A      2.769711  1422A      2.773340  1423A      2.775449  
    1424A      2.779185  1425A      2.783886  1426A      2.786369  
    1427A      2.788031  1428A      2.791895  1429A      2.795876  
    1430A      2.799402  1431A      2.801615  1432A      2.802558  
    1433A      2.806934  1434A      2.809986  1435A      2.815042  
    1436A      2.816435  1437A      2.819026  1438A      2.820947  
    1439A      2.824710  1440A      2.826355  1441A      2.829421  
    1442A      2.832940  1443A      2.834377  1444A      2.836968  
    1445A      2.838494  1446A      2.840585  1447A      2.846556  
    1448A      2.847473  1449A      2.852952  1450A      2.854938  
    1451A      2.856060  1452A      2.859543  1453A      2.866898  
    1454A      2.872422  1455A      2.873192  1456A      2.875996  
    1457A      2.876801  1458A      2.879207  1459A      2.882282  
    1460A      2.886057  1461A      2.888937  1462A      2.892778  
    1463A      2.894036  1464A      2.896812  1465A      2.900551  
    1466A      2.902012  1467A      2.905584  1468A      2.909401  
    1469A      2.911913  1470A      2.912557  1471A      2.915000  
    1472A      2.919679  1473A      2.921084  1474A      2.922611  
    1475A      2.929332  1476A      2.931289  1477A      2.932731  
    1478A      2.935567  1479A      2.940647  1480A      2.942151  
    1481A      2.945197  1482A      2.948379  1483A      2.951014  
    1484A      2.956164  1485A      2.957442  1486A      2.957905  
    1487A      2.961607  1488A      2.967943  1489A      2.969029  
    1490A      2.969364  1491A      2.976340  1492A      2.977986  
    1493A      2.981143  1494A      2.984883  1495A      2.986605  
    1496A      2.991217  1497A      2.993206  1498A      2.996038  
    1499A      3.000880  1500A      3.002061  1501A      3.003988  
    1502A      3.006699  1503A      3.008568  1504A      3.014697  
    1505A      3.019947  1506A      3.024674  1507A      3.026613  
    1508A      3.028070  1509A      3.029660  1510A      3.034279  
    1511A      3.036455  1512A      3.040053  1513A      3.041137  
    1514A      3.045867  1515A      3.046394  1516A      3.049501  
    1517A      3.053172  1518A      3.055200  1519A      3.057574  
    1520A      3.060038  1521A      3.061970  1522A      3.063119  
    1523A      3.066872  1524A      3.069881  1525A      3.073202  
    1526A      3.076324  1527A      3.077367  1528A      3.079206  
    1529A      3.084313  1530A      3.085929  1531A      3.087088  
    1532A      3.090301  1533A      3.092843  1534A      3.094125  
    1535A      3.096294  1536A      3.099541  1537A      3.102850  
    1538A      3.104266  1539A      3.110192  1540A      3.112487  
    1541A      3.118417  1542A      3.118789  1543A      3.120390  
    1544A      3.124745  1545A      3.129396  1546A      3.130604  
    1547A      3.134405  1548A      3.137555  1549A      3.142101  
    1550A      3.143878  1551A      3.145223  1552A      3.147771  
    1553A      3.148868  1554A      3.152460  1555A      3.154216  
    1556A      3.158536  1557A      3.159665  1558A      3.169797  
    1559A      3.172275  1560A      3.173741  1561A      3.175629  
    1562A      3.177264  1563A      3.178803  1564A      3.180339  
    1565A      3.185901  1566A      3.191122  1567A      3.192194  
    1568A      3.197817  1569A      3.199332  1570A      3.201806  
    1571A      3.202257  1572A      3.202849  1573A      3.208663  
    1574A      3.212276  1575A      3.215415  1576A      3.223493  
    1577A      3.226667  1578A      3.228726  1579A      3.232128  
    1580A      3.233890  1581A      3.238972  1582A      3.240849  
    1583A      3.243079  1584A      3.247711  1585A      3.248672  
    1586A      3.252796  1587A      3.257421  1588A      3.262549  
    1589A      3.265074  1590A      3.266970  1591A      3.268366  
    1592A      3.272699  1593A      3.275411  1594A      3.278558  
    1595A      3.285968  1596A      3.288139  1597A      3.289760  
    1598A      3.290995  1599A      3.296205  1600A      3.298887  
    1601A      3.303902  1602A      3.306394  1603A      3.309931  
    1604A      3.310094  1605A      3.314971  1606A      3.316665  
    1607A      3.319669  1608A      3.321832  1609A      3.324796  
    1610A      3.327150  1611A      3.331015  1612A      3.335810  
    1613A      3.337804  1614A      3.340238  1615A      3.342326  
    1616A      3.345855  1617A      3.353143  1618A      3.354115  
    1619A      3.358443  1620A      3.360783  1621A      3.362148  
    1622A      3.367490  1623A      3.367808  1624A      3.371498  
    1625A      3.373814  1626A      3.376758  1627A      3.380992  
    1628A      3.385731  1629A      3.392074  1630A      3.394736  
    1631A      3.396681  1632A      3.400475  1633A      3.403946  
    1634A      3.412123  1635A      3.416397  1636A      3.417899  
    1637A      3.420262  1638A      3.423831  1639A      3.425916  
    1640A      3.428470  1641A      3.430214  1642A      3.430705  
    1643A      3.436283  1644A      3.438843  1645A      3.444794  
    1646A      3.447176  1647A      3.449964  1648A      3.455644  
    1649A      3.456395  1650A      3.459875  1651A      3.464166  
    1652A      3.466852  1653A      3.469720  1654A      3.470845  
    1655A      3.474364  1656A      3.477946  1657A      3.483475  
    1658A      3.486273  1659A      3.488912  1660A      3.496504  
    1661A      3.497700  1662A      3.498341  1663A      3.502196  
    1664A      3.504895  1665A      3.511236  1666A      3.512421  
    1667A      3.513998  1668A      3.520002  1669A      3.521647  
    1670A      3.525918  1671A      3.529054  1672A      3.529510  
    1673A      3.533825  1674A      3.538204  1675A      3.539718  
    1676A      3.541067  1677A      3.545685  1678A      3.551054  
    1679A      3.556002  1680A      3.560689  1681A      3.562171  
    1682A      3.564420  1683A      3.566389  1684A      3.571524  
    1685A      3.577141  1686A      3.584171  1687A      3.585612  
    1688A      3.591296  1689A      3.595644  1690A      3.598211  
    1691A      3.600249  1692A      3.603218  1693A      3.607158  
    1694A      3.608720  1695A      3.612051  1696A      3.616911  
    1697A      3.618855  1698A      3.623636  1699A      3.627126  
    1700A      3.631799  1701A      3.632390  1702A      3.635960  
    1703A      3.637945  1704A      3.645475  1705A      3.647935  
    1706A      3.653804  1707A      3.657681  1708A      3.658841  
    1709A      3.668405  1710A      3.670186  1711A      3.672678  
    1712A      3.678052  1713A      3.681940  1714A      3.686100  
    1715A      3.687014  1716A      3.691540  1717A      3.694078  
    1718A      3.698470  1719A      3.701757  1720A      3.702764  
    1721A      3.707450  1722A      3.712801  1723A      3.717498  
    1724A      3.717811  1725A      3.721923  1726A      3.723778  
    1727A      3.726971  1728A      3.730446  1729A      3.733695  
    1730A      3.736467  1731A      3.740042  1732A      3.742671  
    1733A      3.748240  1734A      3.749687  1735A      3.752762  
    1736A      3.754834  1737A      3.759739  1738A      3.761049  
    1739A      3.768469  1740A      3.773093  1741A      3.775272  
    1742A      3.780412  1743A      3.782443  1744A      3.784225  
    1745A      3.790544  1746A      3.791392  1747A      3.798432  
    1748A      3.804766  1749A      3.807028  1750A      3.811401  
    1751A      3.812648  1752A      3.814773  1753A      3.822118  
    1754A      3.822343  1755A      3.827728  1756A      3.833684  
    1757A      3.834014  1758A      3.838317  1759A      3.840664  
    1760A      3.845951  1761A      3.847333  1762A      3.851386  
    1763A      3.860009  1764A      3.865211  1765A      3.868127  
    1766A      3.869709  1767A      3.875764  1768A      3.881877  
    1769A      3.882961  1770A      3.893353  1771A      3.895510  
    1772A      3.896378  1773A      3.901600  1774A      3.905801  
    1775A      3.907223  1776A      3.911075  1777A      3.912795  
    1778A      3.916774  1779A      3.920060  1780A      3.922440  
    1781A      3.927012  1782A      3.928076  1783A      3.930092  
    1784A      3.931757  1785A      3.936371  1786A      3.942764  
    1787A      3.944943  1788A      3.946490  1789A      3.952562  
    1790A      3.956345  1791A      3.958061  1792A      3.961375  
    1793A      3.965849  1794A      3.969416  1795A      3.976089  
    1796A      3.980414  1797A      3.985707  1798A      3.986585  
    1799A      3.989805  1800A      3.992099  1801A      3.999069  
    1802A      4.000810  1803A      4.001626  1804A      4.007264  
    1805A      4.010774  1806A      4.014878  1807A      4.018235  
    1808A      4.021733  1809A      4.022069  1810A      4.029983  
    1811A      4.032616  1812A      4.033616  1813A      4.036052  
    1814A      4.038758  1815A      4.044874  1816A      4.047012  
    1817A      4.050319  1818A      4.052411  1819A      4.054924  
    1820A      4.056449  1821A      4.059907  1822A      4.064711  
    1823A      4.066404  1824A      4.071869  1825A      4.076485  
    1826A      4.082632  1827A      4.086107  1828A      4.088090  
    1829A      4.091883  1830A      4.095415  1831A      4.096542  
    1832A      4.099778  1833A      4.106021  1834A      4.107915  
    1835A      4.109662  1836A      4.114476  1837A      4.116253  
    1838A      4.121730  1839A      4.123471  1840A      4.123963  
    1841A      4.128157  1842A      4.130782  1843A      4.133504  
    1844A      4.135344  1845A      4.136964  1846A      4.139278  
    1847A      4.145687  1848A      4.146906  1849A      4.152103  
    1850A      4.155365  1851A      4.162427  1852A      4.166988  
    1853A      4.169326  1854A      4.172199  1855A      4.175696  
    1856A      4.177800  1857A      4.182003  1858A      4.185306  
    1859A      4.190703  1860A      4.194908  1861A      4.199506  
    1862A      4.202593  1863A      4.203208  1864A      4.207504  
    1865A      4.210469  1866A      4.212657  1867A      4.217289  
    1868A      4.221655  1869A      4.223549  1870A      4.225963  
    1871A      4.228445  1872A      4.229065  1873A      4.234902  
    1874A      4.245213  1875A      4.247857  1876A      4.248194  
    1877A      4.250699  1878A      4.252587  1879A      4.254940  
    1880A      4.263629  1881A      4.266084  1882A      4.268324  
    1883A      4.268998  1884A      4.271526  1885A      4.274599  
    1886A      4.278442  1887A      4.281438  1888A      4.284484  
    1889A      4.287889  1890A      4.290370  1891A      4.295781  
    1892A      4.296383  1893A      4.299603  1894A      4.303737  
    1895A      4.308963  1896A      4.315206  1897A      4.317404  
    1898A      4.320371  1899A      4.321329  1900A      4.322798  
    1901A      4.327606  1902A      4.328725  1903A      4.333048  
    1904A      4.337886  1905A      4.340344  1906A      4.344094  
    1907A      4.352063  1908A      4.359197  1909A      4.360430  
    1910A      4.362476  1911A      4.368733  1912A      4.373873  
    1913A      4.375119  1914A      4.378196  1915A      4.380829  
    1916A      4.386008  1917A      4.389843  1918A      4.393361  
    1919A      4.398429  1920A      4.400999  1921A      4.406123  
    1922A      4.410825  1923A      4.414294  1924A      4.417313  
    1925A      4.418914  1926A      4.420667  1927A      4.423940  
    1928A      4.429884  1929A      4.432811  1930A      4.439318  
    1931A      4.442753  1932A      4.445387  1933A      4.447612  
    1934A      4.449603  1935A      4.450687  1936A      4.454815  
    1937A      4.459094  1938A      4.462567  1939A      4.468836  
    1940A      4.473626  1941A      4.477075  1942A      4.477416  
    1943A      4.479753  1944A      4.482565  1945A      4.484715  
    1946A      4.490097  1947A      4.491084  1948A      4.493815  
    1949A      4.496782  1950A      4.503200  1951A      4.507517  
    1952A      4.509108  1953A      4.512631  1954A      4.516189  
    1955A      4.518619  1956A      4.520606  1957A      4.525975  
    1958A      4.530341  1959A      4.530952  1960A      4.536526  
    1961A      4.539159  1962A      4.542709  1963A      4.545092  
    1964A      4.547786  1965A      4.548646  1966A      4.551225  
    1967A      4.554419  1968A      4.559585  1969A      4.562670  
    1970A      4.567660  1971A      4.570973  1972A      4.573393  
    1973A      4.575111  1974A      4.578048  1975A      4.582438  
    1976A      4.586804  1977A      4.589268  1978A      4.591991  
    1979A      4.597756  1980A      4.599409  1981A      4.603280  
    1982A      4.604751  1983A      4.608460  1984A      4.611996  
    1985A      4.613262  1986A      4.616579  1987A      4.619579  
    1988A      4.622853  1989A      4.627157  1990A      4.629081  
    1991A      4.631708  1992A      4.635711  1993A      4.637313  
    1994A      4.639399  1995A      4.643608  1996A      4.645644  
    1997A      4.649096  1998A      4.651765  1999A      4.652126  
    2000A      4.653518  2001A      4.657126  2002A      4.662587  
    2003A      4.663098  2004A      4.665182  2005A      4.668958  
    2006A      4.672568  2007A      4.675604  2008A      4.677239  
    2009A      4.680419  2010A      4.683093  2011A      4.686193  
    2012A      4.687767  2013A      4.695003  2014A      4.697534  
    2015A      4.699397  2016A      4.701650  2017A      4.704281  
    2018A      4.713082  2019A      4.716929  2020A      4.722495  
    2021A      4.723935  2022A      4.728657  2023A      4.730788  
    2024A      4.735682  2025A      4.735973  2026A      4.738597  
    2027A      4.740942  2028A      4.744024  2029A      4.748127  
    2030A      4.748861  2031A      4.749876  2032A      4.753462  
    2033A      4.755412  2034A      4.759821  2035A      4.763731  
    2036A      4.768712  2037A      4.770038  2038A      4.776139  
    2039A      4.777276  2040A      4.782318  2041A      4.782688  
    2042A      4.786178  2043A      4.790040  2044A      4.793448  
    2045A      4.798871  2046A      4.802188  2047A      4.802781  
    2048A      4.807052  2049A      4.809057  2050A      4.814998  
    2051A      4.816516  2052A      4.821429  2053A      4.825115  
    2054A      4.827901  2055A      4.830750  2056A      4.834301  
    2057A      4.835783  2058A      4.842692  2059A      4.845248  
    2060A      4.851217  2061A      4.854819  2062A      4.858409  
    2063A      4.864068  2064A      4.868644  2065A      4.874320  
    2066A      4.874854  2067A      4.876739  2068A      4.880705  
    2069A      4.884241  2070A      4.888936  2071A      4.894835  
    2072A      4.899012  2073A      4.902210  2074A      4.908024  
    2075A      4.911367  2076A      4.915843  2077A      4.917148  
    2078A      4.923357  2079A      4.925846  2080A      4.929426  
    2081A      4.932570  2082A      4.934872  2083A      4.937602  
    2084A      4.942708  2085A      4.944074  2086A      4.949415  
    2087A      4.959648  2088A      4.961503  2089A      4.962912  
    2090A      4.965674  2091A      4.971001  2092A      4.973282  
    2093A      4.981645  2094A      4.982893  2095A      4.984824  
    2096A      4.990790  2097A      4.995787  2098A      4.998219  
    2099A      5.001393  2100A      5.006465  2101A      5.007181  
    2102A      5.010476  2103A      5.014446  2104A      5.018217  
    2105A      5.022577  2106A      5.027486  2107A      5.031563  
    2108A      5.035085  2109A      5.039931  2110A      5.046334  
    2111A      5.052592  2112A      5.053958  2113A      5.054784  
    2114A      5.057667  2115A      5.064290  2116A      5.066878  
    2117A      5.072161  2118A      5.072679  2119A      5.077507  
    2120A      5.080657  2121A      5.086605  2122A      5.093078  
    2123A      5.095167  2124A      5.105384  2125A      5.108157  
    2126A      5.109305  2127A      5.113136  2128A      5.115757  
    2129A      5.119772  2130A      5.126631  2131A      5.129131  
    2132A      5.135003  2133A      5.145848  2134A      5.148892  
    2135A      5.151648  2136A      5.154634  2137A      5.168064  
    2138A      5.170855  2139A      5.172177  2140A      5.178693  
    2141A      5.181539  2142A      5.187135  2143A      5.190329  
    2144A      5.198162  2145A      5.203830  2146A      5.205191  
    2147A      5.207729  2148A      5.216729  2149A      5.220925  
    2150A      5.228207  2151A      5.228930  2152A      5.235915  
    2153A      5.240481  2154A      5.244586  2155A      5.250906  
    2156A      5.253243  2157A      5.260960  2158A      5.269169  
    2159A      5.271734  2160A      5.272155  2161A      5.277411  
    2162A      5.281767  2163A      5.284673  2164A      5.289624  
    2165A      5.292774  2166A      5.295749  2167A      5.299592  
    2168A      5.310117  2169A      5.311630  2170A      5.318862  
    2171A      5.320490  2172A      5.323252  2173A      5.333536  
    2174A      5.347355  2175A      5.353448  2176A      5.358785  
    2177A      5.362168  2178A      5.369487  2179A      5.374875  
    2180A      5.377762  2181A      5.389660  2182A      5.394776  
    2183A      5.398938  2184A      5.403708  2185A      5.409102  
    2186A      5.420532  2187A      5.424411  2188A      5.430345  
    2189A      5.432925  2190A      5.444668  2191A      5.449831  
    2192A      5.453415  2193A      5.456359  2194A      5.462820  
    2195A      5.464246  2196A      5.468847  2197A      5.480826  
    2198A      5.494440  2199A      5.499780  2200A      5.509318  
    2201A      5.516166  2202A      5.518253  2203A      5.527809  
    2204A      5.530790  2205A      5.536638  2206A      5.539720  
    2207A      5.545421  2208A      5.550845  2209A      5.561497  
    2210A      5.579125  2211A      5.587228  2212A      5.589109  
    2213A      5.590567  2214A      5.594723  2215A      5.599563  
    2216A      5.609981  2217A      5.611308  2218A      5.618505  
    2219A      5.620563  2220A      5.627266  2221A      5.631113  
    2222A      5.635173  2223A      5.644203  2224A      5.647722  
    2225A      5.656453  2226A      5.658873  2227A      5.669132  
    2228A      5.672584  2229A      5.682766  2230A      5.689669  
    2231A      5.692214  2232A      5.701901  2233A      5.712538  
    2234A      5.713386  2235A      5.724456  2236A      5.727384  
    2237A      5.731352  2238A      5.736881  2239A      5.742618  
    2240A      5.756896  2241A      5.762448  2242A      5.763581  
    2243A      5.764808  2244A      5.774733  2245A      5.782151  
    2246A      5.785891  2247A      5.789804  2248A      5.804910  
    2249A      5.807789  2250A      5.816477  2251A      5.825522  
    2252A      5.831433  2253A      5.834595  2254A      5.836297  
    2255A      5.838991  2256A      5.843015  2257A      5.849614  
    2258A      5.861830  2259A      5.864304  2260A      5.866367  
    2261A      5.874374  2262A      5.881503  2263A      5.886538  
    2264A      5.894604  2265A      5.901036  2266A      5.918585  
    2267A      5.927439  2268A      5.928554  2269A      5.933449  
    2270A      5.941190  2271A      5.946378  2272A      5.950501  
    2273A      5.968579  2274A      5.977191  2275A      5.985092  
    2276A      5.987561  2277A      5.988270  2278A      5.994968  
    2279A      6.003558  2280A      6.010615  2281A      6.012771  
    2282A      6.022106  2283A      6.026722  2284A      6.041906  
    2285A      6.044828  2286A      6.047128  2287A      6.064073  
    2288A      6.069450  2289A      6.082833  2290A      6.094409  
    2291A      6.100018  2292A      6.122836  2293A      6.126381  
    2294A      6.134182  2295A      6.150481  2296A      6.177470  
    2297A      6.180078  2298A      6.196192  2299A      6.215242  
    2300A      6.224758  2301A      6.236714  2302A      6.244957  
    2303A      6.255371  2304A      6.270228  2305A      6.292449  
    2306A      6.295225  2307A      6.300090  2308A      6.323629  
    2309A      6.326251  2310A      6.340314  2311A      6.344617  
    2312A      6.349648  2313A      6.354099  2314A      6.360282  
    2315A      6.368488  2316A      6.381196  2317A      6.383608  
    2318A      6.388233  2319A      6.407103  2320A      6.416554  
    2321A      6.417710  2322A      6.419805  2323A      6.426441  
    2324A      6.436277  2325A      6.447661  2326A      6.447844  
    2327A      6.463638  2328A      6.471282  2329A      6.474371  
    2330A      6.475475  2331A      6.491937  2332A      6.501837  
    2333A      6.509613  2334A      6.511796  2335A      6.524877  
    2336A      6.530046  2337A      6.540751  2338A      6.547250  
    2339A      6.552520  2340A      6.556905  2341A      6.562918  
    2342A      6.571203  2343A      6.574131  2344A      6.580455  
    2345A      6.587622  2346A      6.591241  2347A      6.607572  
    2348A      6.609072  2349A      6.620870  2350A      6.625202  
    2351A      6.627452  2352A      6.638075  2353A      6.648736  
    2354A      6.655747  2355A      6.664077  2356A      6.668897  
    2357A      6.673792  2358A      6.677523  2359A      6.683661  
    2360A      6.685865  2361A      6.692302  2362A      6.694841  
    2363A      6.705310  2364A      6.709329  2365A      6.725293  
    2366A      6.726546  2367A      6.742026  2368A      6.743368  
    2369A      6.748935  2370A      6.751465  2371A      6.762396  
    2372A      6.764971  2373A      6.776165  2374A      6.780788  
    2375A      6.784843  2376A      6.790746  2377A      6.793536  
    2378A      6.800785  2379A      6.803894  2380A      6.815651  
    2381A      6.818727  2382A      6.827566  2383A      6.830830  
    2384A      6.836139  2385A      6.843675  2386A      6.849534  
    2387A      6.853204  2388A      6.860446  2389A      6.867301  
    2390A      6.873895  2391A      6.875999  2392A      6.884290  
    2393A      6.890403  2394A      6.892614  2395A      6.896357  
    2396A      6.900266  2397A      6.907988  2398A      6.911058  
    2399A      6.914859  2400A      6.917080  2401A      6.919950  
    2402A      6.924596  2403A      6.929378  2404A      6.937929  
    2405A      6.941696  2406A      6.945296  2407A      6.950134  
    2408A      6.958127  2409A      6.959549  2410A      6.961863  
    2411A      6.971180  2412A      6.971983  2413A      6.974088  
    2414A      6.976115  2415A      6.984197  2416A      6.991306  
    2417A      6.992570  2418A      6.995034  2419A      6.999602  
    2420A      7.009571  2421A      7.011637  2422A      7.018389  
    2423A      7.018803  2424A      7.024614  2425A      7.028785  
    2426A      7.034136  2427A      7.038903  2428A      7.041790  
    2429A      7.048525  2430A      7.051177  2431A      7.054886  
    2432A      7.059777  2433A      7.063581  2434A      7.066982  
    2435A      7.068914  2436A      7.081120  2437A      7.086642  
    2438A      7.091152  2439A      7.093527  2440A      7.095177  
    2441A      7.096686  2442A      7.099108  2443A      7.102620  
    2444A      7.111935  2445A      7.113705  2446A      7.119434  
    2447A      7.120400  2448A      7.130629  2449A      7.135190  
    2450A      7.136214  2451A      7.144749  2452A      7.146866  
    2453A      7.148552  2454A      7.155016  2455A      7.160037  
    2456A      7.165945  2457A      7.171946  2458A      7.175203  
    2459A      7.177506  2460A      7.180215  2461A      7.184588  
    2462A      7.194382  2463A      7.197016  2464A      7.199085  
    2465A      7.205480  2466A      7.208281  2467A      7.213036  
    2468A      7.217089  2469A      7.219556  2470A      7.223340  
    2471A      7.223500  2472A      7.231292  2473A      7.237027  
    2474A      7.243974  2475A      7.246990  2476A      7.254251  
    2477A      7.256136  2478A      7.261248  2479A      7.265291  
    2480A      7.265873  2481A      7.272662  2482A      7.275349  
    2483A      7.275752  2484A      7.279545  2485A      7.290435  
    2486A      7.292377  2487A      7.298558  2488A      7.302259  
    2489A      7.308925  2490A      7.316791  2491A      7.320429  
    2492A      7.325216  2493A      7.326945  2494A      7.330008  
    2495A      7.331400  2496A      7.336647  2497A      7.346764  
    2498A      7.348071  2499A      7.354313  2500A      7.356546  
    2501A      7.361182  2502A      7.363073  2503A      7.365277  
    2504A      7.368584  2505A      7.377013  2506A      7.382597  
    2507A      7.384411  2508A      7.388094  2509A      7.393506  
    2510A      7.398914  2511A      7.402087  2512A      7.413942  
    2513A      7.417573  2514A      7.419765  2515A      7.421885  
    2516A      7.427197  2517A      7.434489  2518A      7.435784  
    2519A      7.443450  2520A      7.454929  2521A      7.461952  
    2522A      7.465208  2523A      7.473288  2524A      7.478212  
    2525A      7.479322  2526A      7.481764  2527A      7.491371  
    2528A      7.493260  2529A      7.495871  2530A      7.508313  
    2531A      7.517872  2532A      7.521273  2533A      7.532256  
    2534A      7.535943  2535A      7.540644  2536A      7.552851  
    2537A      7.554489  2538A      7.564311  2539A      7.574587  
    2540A      7.581378  2541A      7.583267  2542A      7.585235  
    2543A      7.589624  2544A      7.595079  2545A      7.599917  
    2546A      7.606616  2547A      7.614617  2548A      7.616363  
    2549A      7.628135  2550A      7.633485  2551A      7.637809  
    2552A      7.641010  2553A      7.643435  2554A      7.652677  
    2555A      7.660810  2556A      7.663037  2557A      7.667394  
    2558A      7.668961  2559A      7.681524  2560A      7.684338  
    2561A      7.689528  2562A      7.693248  2563A      7.700727  
    2564A      7.706457  2565A      7.706974  2566A      7.714669  
    2567A      7.718597  2568A      7.734155  2569A      7.736238  
    2570A      7.738646  2571A      7.746242  2572A      7.755369  
    2573A      7.760373  2574A      7.762069  2575A      7.769631  
    2576A      7.776036  2577A      7.780407  2578A      7.781911  
    2579A      7.786901  2580A      7.787746  2581A      7.798444  
    2582A      7.800841  2583A      7.808823  2584A      7.812164  
    2585A      7.817322  2586A      7.821688  2587A      7.831908  
    2588A      7.835505  2589A      7.841624  2590A      7.846082  
    2591A      7.849251  2592A      7.854362  2593A      7.860554  
    2594A      7.866975  2595A      7.869490  2596A      7.870814  
    2597A      7.875898  2598A      7.880525  2599A      7.881625  
    2600A      7.885817  2601A      7.898561  2602A      7.899399  
    2603A      7.904428  2604A      7.913006  2605A      7.918660  
    2606A      7.921904  2607A      7.923709  2608A      7.929711  
    2609A      7.935507  2610A      7.952667  2611A      7.953926  
    2612A      7.958891  2613A      7.964821  2614A      7.968387  
    2615A      7.969757  2616A      7.976365  2617A      7.988346  
    2618A      7.994065  2619A      7.995599  2620A      8.006942  
    2621A      8.012706  2622A      8.014595  2623A      8.021853  
    2624A      8.028987  2625A      8.038659  2626A      8.043334  
    2627A      8.047774  2628A      8.053796  2629A      8.054820  
    2630A      8.056873  2631A      8.068073  2632A      8.072970  
    2633A      8.078155  2634A      8.081954  2635A      8.085843  
    2636A      8.094309  2637A      8.097243  2638A      8.108619  
    2639A      8.113645  2640A      8.120120  2641A      8.129964  
    2642A      8.138622  2643A      8.151494  2644A      8.153316  
    2645A      8.158493  2646A      8.160586  2647A      8.167483  
    2648A      8.172135  2649A      8.179119  2650A      8.181657  
    2651A      8.182075  2652A      8.194626  2653A      8.204209  
    2654A      8.209996  2655A      8.220231  2656A      8.220548  
    2657A      8.223147  2658A      8.227730  2659A      8.235140  
    2660A      8.248272  2661A      8.251655  2662A      8.254310  
    2663A      8.259646  2664A      8.261124  2665A      8.271684  
    2666A      8.275626  2667A      8.280379  2668A      8.280765  
    2669A      8.285428  2670A      8.287270  2671A      8.291191  
    2672A      8.297279  2673A      8.305052  2674A      8.312200  
    2675A      8.316533  2676A      8.318453  2677A      8.319157  
    2678A      8.323051  2679A      8.335803  2680A      8.339082  
    2681A      8.346956  2682A      8.354459  2683A      8.364995  
    2684A      8.371397  2685A      8.376069  2686A      8.385263  
    2687A      8.388441  2688A      8.390671  2689A      8.399091  
    2690A      8.414000  2691A      8.429631  2692A      8.432108  
    2693A      8.439131  2694A      8.446138  2695A      8.452896  
    2696A      8.460314  2697A      8.462782  2698A      8.471376  
    2699A      8.473808  2700A      8.476175  2701A      8.485795  
    2702A      8.489248  2703A      8.491034  2704A      8.497429  
    2705A      8.504693  2706A      8.510626  2707A      8.515726  
    2708A      8.525790  2709A      8.534720  2710A      8.541420  
    2711A      8.547331  2712A      8.554128  2713A      8.558445  
    2714A      8.560940  2715A      8.564685  2716A      8.573584  
    2717A      8.578014  2718A      8.591541  2719A      8.593157  
    2720A      8.600625  2721A      8.603509  2722A      8.616568  
    2723A      8.617521  2724A      8.619231  2725A      8.622843  
    2726A      8.628182  2727A      8.638085  2728A      8.647352  
    2729A      8.650392  2730A      8.660940  2731A      8.664784  
    2732A      8.665846  2733A      8.672898  2734A      8.677292  
    2735A      8.679234  2736A      8.684150  2737A      8.689706  
    2738A      8.695668  2739A      8.698091  2740A      8.708303  
    2741A      8.709445  2742A      8.717708  2743A      8.719002  
    2744A      8.721426  2745A      8.727717  2746A      8.741283  
    2747A      8.742449  2748A      8.746087  2749A      8.752941  
    2750A      8.765067  2751A      8.767118  2752A      8.769760  
    2753A      8.774349  2754A      8.781034  2755A      8.782131  
    2756A      8.785533  2757A      8.790706  2758A      8.796950  
    2759A      8.804584  2760A      8.805054  2761A      8.810122  
    2762A      8.813934  2763A      8.817230  2764A      8.822761  
    2765A      8.825436  2766A      8.832259  2767A      8.835086  
    2768A      8.839886  2769A      8.843216  2770A      8.856187  
    2771A      8.858770  2772A      8.861610  2773A      8.866425  
    2774A      8.872729  2775A      8.880819  2776A      8.890200  
    2777A      8.897610  2778A      8.904749  2779A      8.913502  
    2780A      8.914258  2781A      8.916708  2782A      8.922565  
    2783A      8.924070  2784A      8.926993  2785A      8.936068  
    2786A      8.944609  2787A      8.946499  2788A      8.955165  
    2789A      8.955555  2790A      8.964587  2791A      8.977184  
    2792A      8.986092  2793A      8.987675  2794A      8.992068  
    2795A      8.997016  2796A      9.000830  2797A      9.006860  
    2798A      9.009706  2799A      9.010782  2800A      9.021681  
    2801A      9.030292  2802A      9.032107  2803A      9.038326  
    2804A      9.048995  2805A      9.051223  2806A      9.053047  
    2807A      9.066150  2808A      9.067123  2809A      9.076662  
    2810A      9.081728  2811A      9.086825  2812A      9.087258  
    2813A      9.092015  2814A      9.093597  2815A      9.113431  
    2816A      9.122269  2817A      9.124908  2818A      9.134315  
    2819A      9.136765  2820A      9.141354  2821A      9.144875  
    2822A      9.147544  2823A      9.155087  2824A      9.158822  
    2825A      9.177622  2826A      9.185343  2827A      9.195302  
    2828A      9.201036  2829A      9.201897  2830A      9.208109  
    2831A      9.213677  2832A      9.219044  2833A      9.224362  
    2834A      9.227727  2835A      9.231078  2836A      9.240933  
    2837A      9.244469  2838A      9.254962  2839A      9.259494  
    2840A      9.269907  2841A      9.285670  2842A      9.290624  
    2843A      9.295562  2844A      9.299580  2845A      9.306141  
    2846A      9.313646  2847A      9.316511  2848A      9.322185  
    2849A      9.328349  2850A      9.335618  2851A      9.339962  
    2852A      9.346891  2853A      9.366282  2854A      9.368493  
    2855A      9.383578  2856A      9.389147  2857A      9.403343  
    2858A      9.403931  2859A      9.407318  2860A      9.408953  
    2861A      9.422402  2862A      9.428473  2863A      9.431111  
    2864A      9.438649  2865A      9.440864  2866A      9.445951  
    2867A      9.448872  2868A      9.456162  2869A      9.464060  
    2870A      9.468406  2871A      9.471021  2872A      9.481670  
    2873A      9.490301  2874A      9.498647  2875A      9.504006  
    2876A      9.505488  2877A      9.511465  2878A      9.513469  
    2879A      9.528560  2880A      9.537440  2881A      9.545410  
    2882A      9.548284  2883A      9.551035  2884A      9.556441  
    2885A      9.557067  2886A      9.558884  2887A      9.567392  
    2888A      9.581914  2889A      9.592173  2890A      9.594275  
    2891A      9.599805  2892A      9.609053  2893A      9.618330  
    2894A      9.619758  2895A      9.627144  2896A      9.631975  
    2897A      9.639781  2898A      9.646094  2899A      9.653250  
    2900A      9.659961  2901A      9.672551  2902A      9.673012  
    2903A      9.681578  2904A      9.694467  2905A      9.703218  
    2906A      9.707283  2907A      9.723823  2908A      9.726972  
    2909A      9.727783  2910A      9.737299  2911A      9.738911  
    2912A      9.743055  2913A      9.745441  2914A      9.754302  
    2915A      9.762831  2916A      9.763619  2917A      9.765972  
    2918A      9.774270  2919A      9.782721  2920A      9.790558  
    2921A      9.792688  2922A      9.800337  2923A      9.809378  
    2924A      9.810639  2925A      9.815595  2926A      9.817743  
    2927A      9.824780  2928A      9.827124  2929A      9.828342  
    2930A      9.841293  2931A      9.852664  2932A      9.853780  
    2933A      9.858079  2934A      9.862319  2935A      9.865132  
    2936A      9.870803  2937A      9.875800  2938A      9.884886  
    2939A      9.893424  2940A      9.896964  2941A      9.899657  
    2942A      9.903287  2943A      9.907153  2944A      9.914144  
    2945A      9.915583  2946A      9.920654  2947A      9.921400  
    2948A      9.924945  2949A      9.934370  2950A      9.938017  
    2951A      9.943763  2952A      9.948711  2953A      9.961179  
    2954A      9.964481  2955A      9.973909  2956A      9.991713  
    2957A     10.000442  2958A     10.012570  2959A     10.024616  
    2960A     10.042487  2961A     10.045339  2962A     10.047462  
    2963A     10.048445  2964A     10.060617  2965A     10.067807  
    2966A     10.071353  2967A     10.079784  2968A     10.090100  
    2969A     10.093744  2970A     10.108440  2971A     10.112961  
    2972A     10.134117  2973A     10.138414  2974A     10.145487  
    2975A     10.148320  2976A     10.149413  2977A     10.152438  
    2978A     10.159519  2979A     10.169869  2980A     10.172173  
    2981A     10.178858  2982A     10.182432  2983A     10.187606  
    2984A     10.199223  2985A     10.200098  2986A     10.203123  
    2987A     10.211633  2988A     10.212968  2989A     10.220512  
    2990A     10.228617  2991A     10.233407  2992A     10.235943  
    2993A     10.248524  2994A     10.251863  2995A     10.263118  
    2996A     10.265472  2997A     10.271361  2998A     10.272632  
    2999A     10.281008  3000A     10.288742  3001A     10.289552  
    3002A     10.296055  3003A     10.298143  3004A     10.299076  
    3005A     10.306291  3006A     10.311821  3007A     10.315331  
    3008A     10.316958  3009A     10.328667  3010A     10.331294  
    3011A     10.337460  3012A     10.340259  3013A     10.343319  
    3014A     10.350363  3015A     10.358408  3016A     10.365819  
    3017A     10.368466  3018A     10.375962  3019A     10.379867  
    3020A     10.398260  3021A     10.406943  3022A     10.415599  
    3023A     10.419772  3024A     10.423329  3025A     10.425675  
    3026A     10.433792  3027A     10.442020  3028A     10.445676  
    3029A     10.453504  3030A     10.458180  3031A     10.462295  
    3032A     10.466729  3033A     10.475599  3034A     10.478759  
    3035A     10.491833  3036A     10.501353  3037A     10.513669  
    3038A     10.526010  3039A     10.536580  3040A     10.569587  
    3041A     10.587319  3042A     10.592222  3043A     10.600949  
    3044A     10.606968  3045A     10.610380  3046A     10.622663  
    3047A     10.653186  3048A     10.661901  3049A     10.672943  
    3050A     10.699363  3051A     10.707128  3052A     10.710450  
    3053A     10.737677  3054A     10.739110  3055A     10.754793  
    3056A     10.758491  3057A     10.763287  3058A     10.767746  
    3059A     10.782390  3060A     10.790742  3061A     10.796952  
    3062A     10.817393  3063A     10.820271  3064A     10.834168  
    3065A     10.838940  3066A     10.848992  3067A     10.852488  
    3068A     10.862491  3069A     10.875474  3070A     10.876979  
    3071A     10.881757  3072A     10.885725  3073A     10.892634  
    3074A     10.895529  3075A     10.899158  3076A     10.907830  
    3077A     10.909900  3078A     10.919973  3079A     10.949987  
    3080A     10.954424  3081A     10.959811  3082A     10.967601  
    3083A     10.980578  3084A     10.996207  3085A     11.004249  
    3086A     11.010285  3087A     11.011286  3088A     11.016513  
    3089A     11.019708  3090A     11.037920  3091A     11.045780  
    3092A     11.053277  3093A     11.055542  3094A     11.066481  
    3095A     11.069025  3096A     11.074414  3097A     11.079977  
    3098A     11.084651  3099A     11.092739  3100A     11.101766  
    3101A     11.109635  3102A     11.110684  3103A     11.122361  
    3104A     11.131054  3105A     11.133191  3106A     11.141342  
    3107A     11.150245  3108A     11.152015  3109A     11.163714  
    3110A     11.168310  3111A     11.175939  3112A     11.179410  
    3113A     11.196475  3114A     11.199293  3115A     11.213117  
    3116A     11.216712  3117A     11.220263  3118A     11.225215  
    3119A     11.230899  3120A     11.243556  3121A     11.249287  
    3122A     11.249612  3123A     11.251573  3124A     11.256538  
    3125A     11.259418  3126A     11.268477  3127A     11.275646  
    3128A     11.280260  3129A     11.286425  3130A     11.293607  
    3131A     11.317279  3132A     11.321177  3133A     11.328106  
    3134A     11.350775  3135A     11.358505  3136A     11.365883  
    3137A     11.376116  3138A     11.386425  3139A     11.392985  
    3140A     11.407488  3141A     11.409511  3142A     11.419246  
    3143A     11.422428  3144A     11.430459  3145A     11.444476  
    3146A     11.456468  3147A     11.463694  3148A     11.469526  
    3149A     11.472360  3150A     11.497979  3151A     11.502456  
    3152A     11.517535  3153A     11.525786  3154A     11.526751  
    3155A     11.543728  3156A     11.545209  3157A     11.548995  
    3158A     11.567902  3159A     11.575167  3160A     11.580458  
    3161A     11.600900  3162A     11.606428  3163A     11.609339  
    3164A     11.612955  3165A     11.619116  3166A     11.626515  
    3167A     11.635124  3168A     11.639468  3169A     11.645761  
    3170A     11.654457  3171A     11.655495  3172A     11.662181  
    3173A     11.668980  3174A     11.678067  3175A     11.683222  
    3176A     11.689313  3177A     11.696781  3178A     11.709251  
    3179A     11.713999  3180A     11.715530  3181A     11.718604  
    3182A     11.744208  3183A     11.753553  3184A     11.764128  
    3185A     11.787678  3186A     11.791426  3187A     11.794352  
    3188A     11.798091  3189A     11.805688  3190A     11.822973  
    3191A     11.863167  3192A     11.872426  3193A     11.890074  
    3194A     11.899964  3195A     11.902709  3196A     11.916234  
    3197A     11.929874  3198A     11.930908  3199A     11.933527  
    3200A     11.936940  3201A     11.949507  3202A     11.955852  
    3203A     11.957050  3204A     11.965249  3205A     11.970715  
    3206A     11.979361  3207A     11.998445  3208A     12.007593  
    3209A     12.011399  3210A     12.022570  3211A     12.042152  
    3212A     12.044414  3213A     12.069457  3214A     12.081619  
    3215A     12.101956  3216A     12.112727  3217A     12.119645  
    3218A     12.163582  3219A     12.176351  3220A     12.177271  
    3221A     12.182111  3222A     12.196110  3223A     12.209046  
    3224A     12.225458  3225A     12.234155  3226A     12.235327  
    3227A     12.236318  3228A     12.246088  3229A     12.251577  
    3230A     12.265143  3231A     12.266690  3232A     12.270396  
    3233A     12.285020  3234A     12.291628  3235A     12.295668  
    3236A     12.314386  3237A     12.317217  3238A     12.319934  
    3239A     12.335327  3240A     12.348035  3241A     12.349778  
    3242A     12.352925  3243A     12.363459  3244A     12.376020  
    3245A     12.383848  3246A     12.391266  3247A     12.400324  
    3248A     12.410169  3249A     12.418804  3250A     12.420060  
    3251A     12.435266  3252A     12.446539  3253A     12.448559  
    3254A     12.473195  3255A     12.484651  3256A     12.502322  
    3257A     12.528763  3258A     12.550393  3259A     12.562219  
    3260A     12.590159  3261A     12.601176  3262A     12.605734  
    3263A     12.615833  3264A     12.674243  3265A     12.683665  
    3266A     12.736456  3267A     12.746998  3268A     12.759494  
    3269A     12.776166  3270A     12.778932  3271A     12.796803  
    3272A     12.804824  3273A     12.807508  3274A     12.820327  
    3275A     12.832939  3276A     12.842213  3277A     12.850469  
    3278A     12.862119  3279A     12.871434  3280A     12.881247  
    3281A     12.890269  3282A     12.932371  3283A     12.952521  
    3284A     12.969277  3285A     12.971424  3286A     12.978687  
    3287A     12.992983  3288A     12.998042  3289A     13.012311  
    3290A     13.013977  3291A     13.035556  3292A     13.047170  
    3293A     13.050694  3294A     13.072881  3295A     13.077296  
    3296A     13.087408  3297A     13.092974  3298A     13.099068  
    3299A     13.101356  3300A     13.115093  3301A     13.128296  
    3302A     13.131505  3303A     13.132123  3304A     13.144513  
    3305A     13.162445  3306A     13.175235  3307A     13.199000  
    3308A     13.209266  3309A     13.241645  3310A     13.258225  
    3311A     13.281595  3312A     13.310749  3313A     13.317594  
    3314A     13.350471  3315A     13.351045  3316A     13.363094  
    3317A     13.373741  3318A     13.390303  3319A     13.397147  
    3320A     13.400685  3321A     13.416157  3322A     13.420613  
    3323A     13.429945  3324A     13.431747  3325A     13.438300  
    3326A     13.448128  3327A     13.461383  3328A     13.465979  
    3329A     13.470861  3330A     13.487776  3331A     13.508516  
    3332A     13.514032  3333A     13.523094  3334A     13.537204  
    3335A     13.545587  3336A     13.552106  3337A     13.553864  
    3338A     13.556384  3339A     13.584169  3340A     13.603423  
    3341A     13.605434  3342A     13.620641  3343A     13.657212  
    3344A     13.688917  3345A     13.693069  3346A     13.719809  
    3347A     13.755498  3348A     13.759489  3349A     13.769760  
    3350A     13.783493  3351A     13.811081  3352A     13.831071  
    3353A     13.872477  3354A     13.888419  3355A     13.908457  
    3356A     13.912612  3357A     13.964164  3358A     14.048370  
    3359A     14.055083  3360A     14.069861  3361A     14.071118  
    3362A     14.081736  3363A     14.121559  3364A     14.150439  
    3365A     14.153291  3366A     14.192806  3367A     14.211980  
    3368A     14.269062  3369A     14.350325  3370A     14.385884  
    3371A     14.401626  3372A     14.522499  3373A     14.541002  
    3374A     14.590224  3375A     14.625632  3376A     14.634766  
    3377A     14.649660  3378A     14.662311  3379A     14.666533  
    3380A     14.674751  3381A     14.699207  3382A     14.706534  
    3383A     14.796597  3384A     14.897955  3385A     15.021537  
    3386A     15.070473  3387A     15.077189  3388A     15.093755  
    3389A     15.128373  3390A     15.167575  3391A     15.179873  
    3392A     15.203153  3393A     15.207488  3394A     15.250288  
    3395A     15.287631  3396A     15.369085  3397A     15.400039  
    3398A     15.415453  3399A     15.445511  3400A     15.448530  
    3401A     15.526372  3402A     15.555773  3403A     15.566547  
    3404A     15.594872  3405A     15.597751  3406A     17.405234  
    3407A     17.540363  3408A     17.686767  3409A     26.789223  
    3410A     26.882794  3411A     27.004192  3412A     27.026029  
    3413A     27.256757  3414A     27.415212  3415A     27.447767  
    3416A     28.078065  3417A     28.094074  3418A     28.153746  
    3419A     28.460235  3420A     28.478814  3421A     28.514337  
    3422A     28.702564  3423A     36.094783  3424A     36.179176  
    3425A     36.359146  3426A     36.412969  3427A     44.444857  
    3428A     44.450094  3429A     44.651849  3430A     44.660387  
    3431A     44.711105  3432A     45.037813  3433A     45.118444  
    3434A     45.966356  3435A     46.323137  3436A     46.616614  

    Final Occupation by Irrep:
              A 
    DOCC [   109 ]

  Energy converged.

  @DF-RHF Final Energy: -1512.25036704080458

   => Energetics <=

    Nuclear Repulsion Energy =           2605.3050234228217050
    One-Electron Energy =               -7258.0811585255942191
    Two-Electron Energy =                3140.5257680619683924
    Total Energy =                      -1512.2503670408045764



Properties will be evaluated at   0.000000,   0.000000,   0.000000 Bohr

Properties computed using the SCF density matrix

  Nuclear Dipole Moment: (a.u.)
     X:     3.6080      Y:     8.5823      Z:    -2.3649

  Electronic Dipole Moment: (a.u.)
     X:    -2.9397      Y:    -7.9331      Z:     3.6148

  Dipole Moment: (a.u.)
     X:     0.6682      Y:     0.6492      Z:     1.2500     Total:     1.5589

  Dipole Moment: (Debye)
     X:     1.6985      Y:     1.6500      Z:     3.1771     Total:     3.9625


*** tstop() called on hex15 at Wed Mar  7 19:59:57 2018
Module time:
	user time   =   20386.56 seconds =     339.78 minutes
	system time =    3182.72 seconds =      53.05 minutes
	total time  =      20914 seconds =     348.57 minutes
Total time:
	user time   =   20386.56 seconds =     339.78 minutes
	system time =    3182.72 seconds =      53.05 minutes
	total time  =      20914 seconds =     348.57 minutes

*** Psi4 exiting successfully. Buy a developer a beer!
