
    -----------------------------------------------------------------------
          Psi4: An Open-Source Ab Initio Electronic Structure Package
                               Psi4 1.2a1.dev875 

                         Git: Rev {symm_JK} 0ea9481 dirty


    R. M. Parrish, L. A. Burns, D. G. A. Smith, A. C. Simmonett,
    A. E. DePrince III, E. G. Hohenstein, U. Bozkaya, A. Yu. Sokolov,
    R. Di Remigio, R. M. Richard, J. F. Gonthier, A. M. James,
    H. R. McAlexander, A. Kumar, M. Saitow, X. Wang, B. P. Pritchard,
    P. Verma, H. F. Schaefer III, K. Patkowski, R. A. King, E. F. Valeev,
    F. A. Evangelista, J. M. Turney, T. D. Crawford, and C. D. Sherrill,
    J. Chem. Theory Comput. 13(7) pp 3185--3197 (2017).
    (doi: 10.1021/acs.jctc.7b00174)

    -----------------------------------------------------------------------


    Psi4 started on: Tuesday, 06 March 2018 11:57AM

    Process ID:   5223
    PSIDATADIR: /theoryfs2/ds/schieber/Gits/mspsi4/objdir3/stage/usr/local/psi4/share/psi4
    Memory:     500.0 MiB
    Threads:    6
    
  ==> Input File <==

--------------------------------------------------------------------------
memory 60 Gb

molecule protein_103 {
0 1
 N   18.626  30.444   6.627
 C   17.853  29.516   5.837
 C   16.945  30.292   4.886
 O   15.843  30.678   5.237
 C   17.047  28.642   6.811
 C   16.316  27.513   6.146
 O   16.236  27.458   4.905
 O   15.762  26.696   6.882
 N    4.567  24.042   8.795
 C    4.886  22.777   8.145
 C    6.265  22.720   7.521
 O    6.723  23.689   6.900
 N   17.407  27.054  -1.437
 C   17.227  26.751  -0.026
 C   18.555  26.446   0.653
 O   19.003  25.309   0.692
 C   16.258  25.572   0.084
 C   15.759  25.336   1.493
 O   16.399  25.780   2.453
 O   14.731  24.675   1.645
 N   19.106  26.199   3.688
 C   18.957  25.372   4.876
 C   18.845  23.903   4.520
 O   18.660  23.054   5.417
 N   20.536  20.559   2.918
 C   21.779  19.912   2.496
 C   21.693  19.374   1.107
 O   22.642  19.502   0.361
 C   22.169  18.827   3.447
 C   22.272  19.337   4.844
 O   22.714  20.482   5.029
 O   21.836  18.647   5.778
 N   20.524  18.868   0.719
 C   20.355  18.227  -0.584
 C   19.212  18.807  -1.371
 O   18.383  19.523  -0.846
 C   20.084  16.745  -0.413
 C   21.023  16.088   0.586
 O   22.233  15.970   0.265
 O   20.531  15.682   1.672
 N   15.750  18.102  -3.440
 C   14.628  17.162  -3.514
 C   13.618  17.726  -4.436
 O   13.169  18.861  -4.263
 C   13.781  17.005  -2.245
 C   13.297  15.592  -2.184
 C   14.518  17.455  -1.007
 N   13.583  16.896   8.239
 C   13.484  18.319   8.459
 C   12.647  18.565   9.672
 O   12.880  17.976  10.721
 H   18.180  30.990   7.295
 H   18.510  28.835   5.249
 H   16.336  29.276   7.377
 H   17.778  28.186   7.516
 H   15.845  26.702   7.843
 H    4.436  24.871   8.195
 H    4.744  21.930   8.802
 H    4.143  22.632   7.335
 H   17.860  26.421  -2.023
 H   16.724  27.595   0.500
 H   16.724  24.663  -0.337
 H   15.363  25.845  -0.519
 H   16.737  25.171   3.109
 H   18.314  26.771   3.377
 H   18.015  25.631   5.391
 H   19.792  25.567   5.577
 H   19.976  20.073   3.597
 H   22.602  20.664   2.537
 H   23.175  18.459   3.144
 H   21.465  17.966   3.392
 H   21.492  17.752   5.634
 H   19.735  18.818   1.381
 H   21.291  18.340  -1.170
 H   20.109  16.188  -1.374
 H   19.050  16.648  -0.012
 H   19.629  15.364   1.734
 H   15.541  19.065  -3.172
 H   15.011  16.180  -3.836
 H   12.886  17.674  -2.203
 H   14.115  14.872  -2.046
 H   12.706  15.323  -3.086
 H   12.624  15.478  -1.307
 H   15.405  16.799  -0.936
 H   13.886  17.316  -0.103
 H   14.813  18.522  -1.068
 H   12.728  16.393   8.153
 H   13.053  18.790   7.555
 H   14.480  18.781   8.624
 H   19.646  30.419   6.619
 H   17.295  30.415   3.850
 H    4.454  24.117   9.806
 H    6.887  21.864   7.822
 H   16.947  27.858  -1.864
 H   19.060  27.284   1.155
 H   20.034  26.347   3.290
 H   18.824  23.654   3.449
 H   20.197  21.395   2.443
 H   19.162  18.493  -2.424
 H   16.715  17.829  -3.624
 H   13.269  17.060  -5.239
 H   14.494  16.447   8.142
 H   11.982  19.438   9.599
}

set {
basis cc-pvqz
scf_type df
guess sad
DF_SCF_TYPE DFJK
}

energy('HF')
--------------------------------------------------------------------------

  Memory set to  55.879 GiB by Python driver.

*** tstart() called on hex15
*** at Tue Mar  6 11:57:16 2018

   => Loading Basis Set <=

    Name: CC-PVQZ
    Role: ORBITAL
    Keyword: BASIS
    atoms 1, 9, 13, 21, 25, 33, 41, 48                                                          entry N          line   289 file /theoryfs2/ds/schieber/Gits/mspsi4/objdir3/stage/usr/local/psi4/share/psi4/basis/cc-pvqz.gbs 
    atoms 2-3, 5-6, 10-11, 14-15, 17-18, 22-23, 26-27, 29-30, 34-35, 37-38, 42-43, 45-47, 49-50 entry C          line   239 file /theoryfs2/ds/schieber/Gits/mspsi4/objdir3/stage/usr/local/psi4/share/psi4/basis/cc-pvqz.gbs 
    atoms 4, 7-8, 12, 16, 19-20, 24, 28, 31-32, 36, 39-40, 44, 51                               entry O          line   339 file /theoryfs2/ds/schieber/Gits/mspsi4/objdir3/stage/usr/local/psi4/share/psi4/basis/cc-pvqz.gbs 
    atoms 52-103                                                                                entry H          line    22 file /theoryfs2/ds/schieber/Gits/mspsi4/objdir3/stage/usr/local/psi4/share/psi4/basis/cc-pvqz.gbs 


         ---------------------------------------------------------
                                   SCF
            by Justin Turney, Rob Parrish, Andy Simmonett
                             and Daniel Smith
                              RHF Reference
                        6 Threads,  57220 MiB Core
         ---------------------------------------------------------

  ==> Geometry <==

    Molecular point group: c1
    Full point group: C1

    Geometry (in Angstrom), charge = 0, multiplicity = 1:

       Center              X                  Y                   Z               Mass       
    ------------   -----------------  -----------------  -----------------  -----------------
           N          1.834525169641     8.467048519537     3.745546000143    14.003074004780
           C          1.061525169641     7.539048519537     2.955546000143    12.000000000000
           C          0.153525169641     8.315048519537     2.004546000143    12.000000000000
           O         -0.948474830359     8.701048519537     2.355546000143    15.994914619560
           C          0.255525169641     6.665048519537     3.929546000143    12.000000000000
           C         -0.475474830359     5.536048519537     3.264546000143    12.000000000000
           O         -0.555474830359     5.481048519537     2.023546000143    15.994914619560
           O         -1.029474830359     4.719048519537     4.000546000143    15.994914619560
           N        -12.224474830359     2.065048519537     5.913546000143    14.003074004780
           C        -11.905474830359     0.800048519537     5.263546000143    12.000000000000
           C        -10.526474830359     0.743048519537     4.639546000143    12.000000000000
           O        -10.068474830359     1.712048519537     4.018546000143    15.994914619560
           N          0.615525169641     5.077048519537    -4.318453999857    14.003074004780
           C          0.435525169641     4.774048519537    -2.907453999857    12.000000000000
           C          1.763525169641     4.469048519537    -2.228453999857    12.000000000000
           O          2.211525169641     3.332048519537    -2.189453999857    15.994914619560
           C         -0.533474830359     3.595048519537    -2.797453999857    12.000000000000
           C         -1.032474830359     3.359048519537    -1.388453999857    12.000000000000
           O         -0.392474830359     3.803048519537    -0.428453999857    15.994914619560
           O         -2.060474830359     2.698048519537    -1.236453999857    15.994914619560
           N          2.314525169641     4.222048519537     0.806546000143    14.003074004780
           C          2.165525169641     3.395048519537     1.994546000143    12.000000000000
           C          2.053525169641     1.926048519537     1.638546000143    12.000000000000
           O          1.868525169641     1.077048519537     2.535546000143    15.994914619560
           N          3.744525169641    -1.417951480463     0.036546000143    14.003074004780
           C          4.987525169641    -2.064951480463    -0.385453999857    12.000000000000
           C          4.901525169641    -2.602951480463    -1.774453999857    12.000000000000
           O          5.850525169641    -2.474951480463    -2.520453999857    15.994914619560
           C          5.377525169641    -3.149951480463     0.565546000143    12.000000000000
           C          5.480525169641    -2.639951480463     1.962546000143    12.000000000000
           O          5.922525169641    -1.494951480463     2.147546000143    15.994914619560
           O          5.044525169641    -3.329951480463     2.896546000143    15.994914619560
           N          3.732525169641    -3.108951480463    -2.162453999857    14.003074004780
           C          3.563525169641    -3.749951480463    -3.465453999857    12.000000000000
           C          2.420525169641    -3.169951480463    -4.252453999857    12.000000000000
           O          1.591525169641    -2.453951480463    -3.727453999857    15.994914619560
           C          3.292525169641    -5.231951480463    -3.294453999857    12.000000000000
           C          4.231525169641    -5.888951480463    -2.295453999857    12.000000000000
           O          5.441525169641    -6.006951480463    -2.616453999857    15.994914619560
           O          3.739525169641    -6.294951480463    -1.209453999857    15.994914619560
           N         -1.041474830359    -3.874951480463    -6.321453999857    14.003074004780
           C         -2.163474830359    -4.814951480463    -6.395453999857    12.000000000000
           C         -3.173474830359    -4.250951480463    -7.317453999857    12.000000000000
           O         -3.622474830359    -3.115951480463    -7.144453999857    15.994914619560
           C         -3.010474830359    -4.971951480463    -5.126453999857    12.000000000000
           C         -3.494474830359    -6.384951480463    -5.065453999857    12.000000000000
           C         -2.273474830359    -4.521951480463    -3.888453999857    12.000000000000
           N         -3.208474830359    -5.080951480463     5.357546000143    14.003074004780
           C         -3.307474830359    -3.657951480463     5.577546000143    12.000000000000
           C         -4.144474830359    -3.411951480463     6.790546000143    12.000000000000
           O         -3.911474830359    -4.000951480463     7.839546000143    15.994914619560
           H          1.388525169641     9.013048519537     4.413546000143     1.007825032070
           H          1.718525169641     6.858048519537     2.367546000143     1.007825032070
           H         -0.455474830359     7.299048519537     4.495546000143     1.007825032070
           H          0.986525169641     6.209048519537     4.634546000143     1.007825032070
           H         -0.946474830359     4.725048519537     4.961546000143     1.007825032070
           H        -12.355474830359     2.894048519537     5.313546000143     1.007825032070
           H        -12.047474830359    -0.046951480463     5.920546000143     1.007825032070
           H        -12.648474830359     0.655048519537     4.453546000143     1.007825032070
           H          1.068525169641     4.444048519537    -4.904453999857     1.007825032070
           H         -0.067474830359     5.618048519537    -2.381453999857     1.007825032070
           H         -0.067474830359     2.686048519537    -3.218453999857     1.007825032070
           H         -1.428474830359     3.868048519537    -3.400453999857     1.007825032070
           H         -0.054474830359     3.194048519537     0.227546000143     1.007825032070
           H          1.522525169641     4.794048519537     0.495546000143     1.007825032070
           H          1.223525169641     3.654048519537     2.509546000143     1.007825032070
           H          3.000525169641     3.590048519537     2.695546000143     1.007825032070
           H          3.184525169641    -1.903951480463     0.715546000143     1.007825032070
           H          5.810525169641    -1.312951480463    -0.344453999857     1.007825032070
           H          6.383525169641    -3.517951480463     0.262546000143     1.007825032070
           H          4.673525169641    -4.010951480463     0.510546000143     1.007825032070
           H          4.700525169641    -4.224951480463     2.752546000143     1.007825032070
           H          2.943525169641    -3.158951480463    -1.500453999857     1.007825032070
           H          4.499525169641    -3.636951480463    -4.051453999857     1.007825032070
           H          3.317525169641    -5.788951480463    -4.255453999857     1.007825032070
           H          2.258525169641    -5.328951480463    -2.893453999857     1.007825032070
           H          2.837525169641    -6.612951480463    -1.147453999857     1.007825032070
           H         -1.250474830359    -2.911951480463    -6.053453999857     1.007825032070
           H         -1.780474830359    -5.796951480463    -6.717453999857     1.007825032070
           H         -3.905474830359    -4.302951480463    -5.084453999857     1.007825032070
           H         -2.676474830359    -7.104951480463    -4.927453999857     1.007825032070
           H         -4.085474830359    -6.653951480463    -5.967453999857     1.007825032070
           H         -4.167474830359    -6.498951480463    -4.188453999857     1.007825032070
           H         -1.386474830359    -5.177951480463    -3.817453999857     1.007825032070
           H         -2.905474830359    -4.660951480463    -2.984453999857     1.007825032070
           H         -1.978474830359    -3.454951480463    -3.949453999857     1.007825032070
           H         -4.063474830359    -5.583951480463     5.271546000143     1.007825032070
           H         -3.738474830359    -3.186951480463     4.673546000143     1.007825032070
           H         -2.311474830359    -3.195951480463     5.742546000143     1.007825032070
           H          2.854525169641     8.442048519537     3.737546000143     1.007825032070
           H          0.503525169641     8.438048519537     0.968546000143     1.007825032070
           H        -12.337474830359     2.140048519537     6.924546000143     1.007825032070
           H         -9.904474830359    -0.112951480463     4.940546000143     1.007825032070
           H          0.155525169641     5.881048519537    -4.745453999857     1.007825032070
           H          2.268525169641     5.307048519537    -1.726453999857     1.007825032070
           H          3.242525169641     4.370048519537     0.408546000143     1.007825032070
           H          2.032525169641     1.677048519537     0.567546000143     1.007825032070
           H          3.405525169641    -0.581951480463    -0.438453999857     1.007825032070
           H          2.370525169641    -3.483951480463    -5.305453999857     1.007825032070
           H         -0.076474830359    -4.147951480463    -6.505453999857     1.007825032070
           H         -3.522474830359    -4.916951480463    -8.120453999857     1.007825032070
           H         -2.297474830359    -5.529951480463     5.260546000143     1.007825032070
           H         -4.809474830359    -2.538951480463     6.717546000143     1.007825032070

  Running in c1 symmetry.

  Rotational constants: A =      0.00083  B =      0.00061  C =      0.00051 [cm^-1]
  Rotational constants: A =     24.83034  B =     18.39626  C =     15.29315 [MHz]
  Nuclear repulsion = 6201.543659593415214

  Charge       = 0
  Multiplicity = 1
  Electrons    = 398
  Nalpha       = 199
  Nbeta        = 199

  ==> Algorithm <==

  SCF Algorithm Type is DF.
  DIIS enabled.
  MOM disabled.
  Fractional occupation disabled.
  Guess Type is SAD.
  Energy threshold   = 1.00e-06
  Density threshold  = 1.00e-06
  Integral threshold = 0.00e+00

  ==> Primary Basis <==

  Basis Set: CC-PVQZ
    Blend: CC-PVQZ
    Number of shells: 1285
    Number of basis function: 4365
    Number of Cartesian functions: 5390
    Spherical Harmonics?: true
    Max angular momentum: 4

   => Loading Basis Set <=

    Name: (CC-PVQZ AUX)
    Role: JKFIT
    Keyword: DF_BASIS_SCF
    atoms 1, 9, 13, 21, 25, 33, 41, 48                                                          entry N          line   195 file /theoryfs2/ds/schieber/Gits/mspsi4/objdir3/stage/usr/local/psi4/share/psi4/basis/cc-pvqz-jkfit.gbs 
    atoms 2-3, 5-6, 10-11, 14-15, 17-18, 22-23, 26-27, 29-30, 34-35, 37-38, 42-43, 45-47, 49-50 entry C          line   137 file /theoryfs2/ds/schieber/Gits/mspsi4/objdir3/stage/usr/local/psi4/share/psi4/basis/cc-pvqz-jkfit.gbs 
    atoms 4, 7-8, 12, 16, 19-20, 24, 28, 31-32, 36, 39-40, 44, 51                               entry O          line   253 file /theoryfs2/ds/schieber/Gits/mspsi4/objdir3/stage/usr/local/psi4/share/psi4/basis/cc-pvqz-jkfit.gbs 
    atoms 52-103                                                                                entry H          line    51 file /theoryfs2/ds/schieber/Gits/mspsi4/objdir3/stage/usr/local/psi4/share/psi4/basis/cc-pvqz-jkfit.gbs 

  ==> Pre-Iterations <==

   -------------------------------------------------------
    Irrep   Nso     Nmo     Nalpha   Nbeta   Ndocc  Nsocc
   -------------------------------------------------------
     A       4365    4365       0       0       0       0
   -------------------------------------------------------
    Total    4365    4365     199     199     199       0
   -------------------------------------------------------

  ==> Integral Setup <==

  ==> DFJK: Density-Fitted J/K Matrices <==

    J tasked:                  Yes
    K tasked:                  Yes
    wK tasked:                  No
    OpenMP threads:              6
    Integrals threads:           6
    Memory (MB):             42915
    Algorithm:                Disk
    Integral Cache:           NONE
    Schwarz Cutoff:          1E-12
    Fitting Condition:       1E-12

   => Auxiliary Basis Set <=

  Basis Set: (CC-PVQZ AUX)
    Blend: CC-PVQZ-JKFIT
    Number of shells: 2104
    Number of basis function: 8058
    Number of Cartesian functions: 10674
    Spherical Harmonics?: true
    Max angular momentum: 5

  Minimum eigenvalue in the overlap matrix is 2.5158406834E-05.
  Using Symmetric Orthogonalization.

  SCF Guess: Superposition of Atomic Densities via on-the-fly atomic UHF.

  ==> Iterations <==

                           Total Energy        Delta E     RMS |[F,P]|

   @DF-RHF iter   0: -2704.94695412846704   -2.70495e+03   7.57687e-03 
   @DF-RHF iter   1: -2685.16981763521517    1.97771e+01   1.00435e-03 
   @DF-RHF iter   2: -2686.33500029900642   -1.16518e+00   7.28046e-04 DIIS
   @DF-RHF iter   3: -2686.94611886731627   -6.11119e-01   1.53605e-04 DIIS
   @DF-RHF iter   4: -2687.00780670567929   -6.16878e-02   5.27789e-05 DIIS
   @DF-RHF iter   5: -2687.01716792972184   -9.36122e-03   2.28035e-05 DIIS
   @DF-RHF iter   6: -2687.01971325259547   -2.54532e-03   1.08670e-05 DIIS
   @DF-RHF iter   7: -2687.02048867563190   -7.75423e-04   5.33764e-06 DIIS
   @DF-RHF iter   8: -2687.02067977337265   -1.91098e-04   2.54003e-06 DIIS
   @DF-RHF iter   9: -2687.02073099967311   -5.12263e-05   1.09110e-06 DIIS
   @DF-RHF iter  10: -2687.02074129857328   -1.02989e-05   4.94756e-07 DIIS
   @DF-RHF iter  11: -2687.02074331482527   -2.01625e-06   2.02736e-07 DIIS
   @DF-RHF iter  12: -2687.02074362473559   -3.09910e-07   8.70228e-08 DIIS

  ==> Post-Iterations <==

    Orbital Energies (a.u.)
    -----------------------

    Doubly Occupied:                                                      

       1A    -20.652596     2A    -20.642141     3A    -20.631763  
       4A    -20.598715     5A    -20.581223     6A    -20.563364  
       7A    -20.557345     8A    -20.555680     9A    -20.555669  
      10A    -20.555106    11A    -20.549352    12A    -20.548763  
      13A    -20.536648    14A    -20.514262    15A    -20.510773  
      16A    -20.509870    17A    -15.596223    18A    -15.555386  
      19A    -15.547333    20A    -15.545520    21A    -15.542013  
      22A    -15.541605    23A    -15.539695    24A    -15.536428  
      25A    -11.411015    26A    -11.394344    27A    -11.377570  
      28A    -11.362184    29A    -11.356148    30A    -11.340725  
      31A    -11.338432    32A    -11.335384    33A    -11.334268  
      34A    -11.331979    35A    -11.329236    36A    -11.329136  
      37A    -11.308868    38A    -11.294338    39A    -11.286567  
      40A    -11.285429    41A    -11.279287    42A    -11.275506  
      43A    -11.273893    44A    -11.273279    45A    -11.272258  
      46A    -11.262518    47A    -11.258228    48A    -11.234165  
      49A    -11.229637    50A    -11.228484    51A    -11.217311  
      52A     -1.526541    53A     -1.523027    54A     -1.509385  
      55A     -1.496196    56A     -1.415595    57A     -1.393766  
      58A     -1.389896    59A     -1.388165    60A     -1.381194  
      61A     -1.376866    62A     -1.371038    63A     -1.366545  
      64A     -1.355715    65A     -1.355444    66A     -1.335624  
      67A     -1.329368    68A     -1.253473    69A     -1.212229  
      70A     -1.198944    71A     -1.190264    72A     -1.186542  
      73A     -1.183240    74A     -1.180398    75A     -1.168877  
      76A     -1.097848    77A     -1.085029    78A     -1.054204  
      79A     -1.051118    80A     -1.040193    81A     -0.977439  
      82A     -0.968898    83A     -0.968717    84A     -0.967770  
      85A     -0.963154    86A     -0.948602    87A     -0.935198  
      88A     -0.934134    89A     -0.928313    90A     -0.910072  
      91A     -0.905576    92A     -0.886151    93A     -0.872375  
      94A     -0.830441    95A     -0.811628    96A     -0.808696  
      97A     -0.801477    98A     -0.798612    99A     -0.795614  
     100A     -0.795193   101A     -0.792518   102A     -0.765872  
     103A     -0.751845   104A     -0.746419   105A     -0.732865  
     106A     -0.728947   107A     -0.717408   108A     -0.717086  
     109A     -0.713445   110A     -0.708300   111A     -0.703935  
     112A     -0.699491   113A     -0.699333   114A     -0.697894  
     115A     -0.695172   116A     -0.693179   117A     -0.691003  
     118A     -0.686644   119A     -0.683986   120A     -0.682799  
     121A     -0.679385   122A     -0.666624   123A     -0.664714  
     124A     -0.662213   125A     -0.659334   126A     -0.657503  
     127A     -0.655525   128A     -0.654958   129A     -0.651029  
     130A     -0.649783   131A     -0.642016   132A     -0.640426  
     133A     -0.637813   134A     -0.630216   135A     -0.629826  
     136A     -0.628998   137A     -0.628602   138A     -0.627043  
     139A     -0.626714   140A     -0.626670   141A     -0.619433  
     142A     -0.612055   143A     -0.609715   144A     -0.606954  
     145A     -0.598320   146A     -0.591014   147A     -0.588876  
     148A     -0.576552   149A     -0.575986   150A     -0.573060  
     151A     -0.572350   152A     -0.564516   153A     -0.561627  
     154A     -0.559689   155A     -0.556287   156A     -0.555798  
     157A     -0.553902   158A     -0.549842   159A     -0.542937  
     160A     -0.536389   161A     -0.531910   162A     -0.530357  
     163A     -0.527297   164A     -0.525690   165A     -0.523252  
     166A     -0.517970   167A     -0.515212   168A     -0.514057  
     169A     -0.503537   170A     -0.501941   171A     -0.491310  
     172A     -0.490774   173A     -0.487300   174A     -0.481446  
     175A     -0.481137   176A     -0.473149   177A     -0.465448  
     178A     -0.461018   179A     -0.455989   180A     -0.454006  
     181A     -0.450782   182A     -0.446639   183A     -0.445594  
     184A     -0.443447   185A     -0.442384   186A     -0.441610  
     187A     -0.438333   188A     -0.434356   189A     -0.432368  
     190A     -0.431985   191A     -0.428565   192A     -0.407212  
     193A     -0.385173   194A     -0.380506   195A     -0.374811  
     196A     -0.373655   197A     -0.373447   198A     -0.370178  
     199A     -0.365165  

    Virtual:                                                              

     200A      0.058965   201A      0.079005   202A      0.080282  
     203A      0.087308   204A      0.091041   205A      0.094381  
     206A      0.095935   207A      0.099696   208A      0.102429  
     209A      0.102926   210A      0.103985   211A      0.105003  
     212A      0.112927   213A      0.116736   214A      0.119040  
     215A      0.120992   216A      0.124619   217A      0.125659  
     218A      0.131572   219A      0.134473   220A      0.135728  
     221A      0.137191   222A      0.137527   223A      0.138839  
     224A      0.141629   225A      0.144506   226A      0.146092  
     227A      0.146622   228A      0.147634   229A      0.149200  
     230A      0.149262   231A      0.152737   232A      0.155012  
     233A      0.157072   234A      0.159722   235A      0.160895  
     236A      0.161581   237A      0.168070   238A      0.169085  
     239A      0.171290   240A      0.172136   241A      0.174066  
     242A      0.175892   243A      0.179245   244A      0.181902  
     245A      0.187217   246A      0.187498   247A      0.189632  
     248A      0.190906   249A      0.196904   250A      0.199475  
     251A      0.201484   252A      0.202832   253A      0.203899  
     254A      0.204405   255A      0.206721   256A      0.211444  
     257A      0.217519   258A      0.222010   259A      0.226374  
     260A      0.229187   261A      0.235018   262A      0.241492  
     263A      0.243566   264A      0.246044   265A      0.247558  
     266A      0.247844   267A      0.251811   268A      0.256341  
     269A      0.260592   270A      0.263585   271A      0.264556  
     272A      0.268080   273A      0.269803   274A      0.270952  
     275A      0.272937   276A      0.275573   277A      0.278248  
     278A      0.279889   279A      0.281781   280A      0.283636  
     281A      0.284765   282A      0.285806   283A      0.287715  
     284A      0.288337   285A      0.291044   286A      0.295389  
     287A      0.298572   288A      0.299884   289A      0.303230  
     290A      0.307335   291A      0.314611   292A      0.317494  
     293A      0.319981   294A      0.321482   295A      0.325427  
     296A      0.326840   297A      0.327636   298A      0.328412  
     299A      0.333155   300A      0.333975   301A      0.336690  
     302A      0.336990   303A      0.341955   304A      0.344870  
     305A      0.345757   306A      0.348123   307A      0.350211  
     308A      0.356127   309A      0.356618   310A      0.359176  
     311A      0.359288   312A      0.362530   313A      0.363529  
     314A      0.366591   315A      0.369212   316A      0.369976  
     317A      0.372735   318A      0.373275   319A      0.376594  
     320A      0.381258   321A      0.381724   322A      0.382233  
     323A      0.383826   324A      0.387918   325A      0.389793  
     326A      0.391054   327A      0.395850   328A      0.399983  
     329A      0.400622   330A      0.402988   331A      0.403683  
     332A      0.403871   333A      0.405302   334A      0.408413  
     335A      0.413210   336A      0.415963   337A      0.421756  
     338A      0.422019   339A      0.422700   340A      0.424649  
     341A      0.426969   342A      0.427614   343A      0.428707  
     344A      0.430765   345A      0.432697   346A      0.432880  
     347A      0.434709   348A      0.436350   349A      0.437481  
     350A      0.438616   351A      0.440377   352A      0.440651  
     353A      0.442112   354A      0.444397   355A      0.445092  
     356A      0.448773   357A      0.449006   358A      0.450408  
     359A      0.451138   360A      0.453363   361A      0.455488  
     362A      0.455846   363A      0.458394   364A      0.460508  
     365A      0.463692   366A      0.465424   367A      0.466003  
     368A      0.467211   369A      0.468584   370A      0.471411  
     371A      0.475219   372A      0.475976   373A      0.476597  
     374A      0.476686   375A      0.478318   376A      0.478382  
     377A      0.480969   378A      0.483273   379A      0.484153  
     380A      0.485142   381A      0.486001   382A      0.486423  
     383A      0.489491   384A      0.490601   385A      0.494502  
     386A      0.495119   387A      0.497980   388A      0.498507  
     389A      0.498609   390A      0.500983   391A      0.504104  
     392A      0.504431   393A      0.506700   394A      0.509234  
     395A      0.510549   396A      0.512043   397A      0.513002  
     398A      0.515104   399A      0.515747   400A      0.517526  
     401A      0.521845   402A      0.522812   403A      0.523613  
     404A      0.525213   405A      0.525640   406A      0.526412  
     407A      0.530657   408A      0.531323   409A      0.531642  
     410A      0.534162   411A      0.534507   412A      0.535587  
     413A      0.536499   414A      0.540227   415A      0.541976  
     416A      0.544799   417A      0.545664   418A      0.547550  
     419A      0.549148   420A      0.550170   421A      0.551363  
     422A      0.554440   423A      0.554544   424A      0.557966  
     425A      0.559839   426A      0.560615   427A      0.562009  
     428A      0.564694   429A      0.565596   430A      0.567940  
     431A      0.568865   432A      0.570152   433A      0.570689  
     434A      0.572437   435A      0.573756   436A      0.574444  
     437A      0.575635   438A      0.578949   439A      0.581630  
     440A      0.582565   441A      0.583416   442A      0.586140  
     443A      0.588242   444A      0.588844   445A      0.590750  
     446A      0.591768   447A      0.595264   448A      0.596646  
     449A      0.597198   450A      0.599971   451A      0.603445  
     452A      0.607015   453A      0.609892   454A      0.611513  
     455A      0.612836   456A      0.614204   457A      0.616969  
     458A      0.618530   459A      0.621404   460A      0.621723  
     461A      0.623661   462A      0.626434   463A      0.627329  
     464A      0.630828   465A      0.631816   466A      0.634888  
     467A      0.636688   468A      0.641908   469A      0.642328  
     470A      0.644976   471A      0.648026   472A      0.649155  
     473A      0.650577   474A      0.652351   475A      0.652772  
     476A      0.655237   477A      0.655742   478A      0.657370  
     479A      0.660455   480A      0.662310   481A      0.666181  
     482A      0.668360   483A      0.670768   484A      0.671723  
     485A      0.672830   486A      0.674483   487A      0.678314  
     488A      0.679468   489A      0.684242   490A      0.684750  
     491A      0.686933   492A      0.690204   493A      0.693390  
     494A      0.693455   495A      0.694181   496A      0.696053  
     497A      0.699339   498A      0.699949   499A      0.702706  
     500A      0.706549   501A      0.708269   502A      0.709229  
     503A      0.712734   504A      0.713918   505A      0.717233  
     506A      0.717542   507A      0.722884   508A      0.725938  
     509A      0.727326   510A      0.729089   511A      0.730999  
     512A      0.733996   513A      0.734902   514A      0.736040  
     515A      0.738291   516A      0.741290   517A      0.742401  
     518A      0.743892   519A      0.744785   520A      0.750827  
     521A      0.751455   522A      0.751887   523A      0.755742  
     524A      0.756557   525A      0.757519   526A      0.757888  
     527A      0.760687   528A      0.763139   529A      0.766207  
     530A      0.767414   531A      0.768167   532A      0.771132  
     533A      0.774490   534A      0.776699   535A      0.782509  
     536A      0.783875   537A      0.785366   538A      0.787050  
     539A      0.790051   540A      0.794134   541A      0.794540  
     542A      0.797014   543A      0.797705   544A      0.800084  
     545A      0.802245   546A      0.806170   547A      0.808382  
     548A      0.810361   549A      0.812517   550A      0.814309  
     551A      0.817588   552A      0.821631   553A      0.824211  
     554A      0.827352   555A      0.828711   556A      0.830330  
     557A      0.830738   558A      0.835402   559A      0.835665  
     560A      0.837935   561A      0.840151   562A      0.842086  
     563A      0.844941   564A      0.846004   565A      0.847585  
     566A      0.848646   567A      0.851336   568A      0.855646  
     569A      0.861090   570A      0.862015   571A      0.862972  
     572A      0.864298   573A      0.864924   574A      0.868934  
     575A      0.871762   576A      0.873268   577A      0.874898  
     578A      0.877176   579A      0.878382   580A      0.881311  
     581A      0.882541   582A      0.886521   583A      0.887028  
     584A      0.887698   585A      0.888922   586A      0.890302  
     587A      0.894535   588A      0.895442   589A      0.895986  
     590A      0.898882   591A      0.901045   592A      0.902166  
     593A      0.904771   594A      0.908350   595A      0.909253  
     596A      0.909328   597A      0.911037   598A      0.914333  
     599A      0.916590   600A      0.919763   601A      0.921913  
     602A      0.922932   603A      0.925529   604A      0.925950  
     605A      0.928397   606A      0.930743   607A      0.934084  
     608A      0.935345   609A      0.939117   610A      0.942873  
     611A      0.943522   612A      0.944031   613A      0.945812  
     614A      0.950416   615A      0.950876   616A      0.951415  
     617A      0.953394   618A      0.956104   619A      0.956284  
     620A      0.958375   621A      0.959220   622A      0.962187  
     623A      0.962714   624A      0.964534   625A      0.966159  
     626A      0.968796   627A      0.968914   628A      0.970918  
     629A      0.974930   630A      0.977750   631A      0.980022  
     632A      0.980148   633A      0.980786   634A      0.982974  
     635A      0.984232   636A      0.986337   637A      0.987235  
     638A      0.987551   639A      0.989579   640A      0.993413  
     641A      0.994389   642A      0.994464   643A      0.995000  
     644A      0.997842   645A      0.999247   646A      1.005375  
     647A      1.006413   648A      1.008249   649A      1.010630  
     650A      1.013008   651A      1.013253   652A      1.016700  
     653A      1.018219   654A      1.021539   655A      1.022566  
     656A      1.025615   657A      1.028115   658A      1.030595  
     659A      1.030804   660A      1.031827   661A      1.033977  
     662A      1.035974   663A      1.036158   664A      1.036933  
     665A      1.038822   666A      1.040598   667A      1.041830  
     668A      1.043838   669A      1.044127   670A      1.047346  
     671A      1.048685   672A      1.049372   673A      1.050568  
     674A      1.051803   675A      1.055312   676A      1.057269  
     677A      1.060447   678A      1.061209   679A      1.062193  
     680A      1.064191   681A      1.067850   682A      1.069152  
     683A      1.071739   684A      1.071796   685A      1.077030  
     686A      1.078097   687A      1.079261   688A      1.082652  
     689A      1.085682   690A      1.086361   691A      1.086708  
     692A      1.090489   693A      1.093807   694A      1.094082  
     695A      1.096625   696A      1.097625   697A      1.098645  
     698A      1.100906   699A      1.105362   700A      1.106738  
     701A      1.108051   702A      1.109383   703A      1.113110  
     704A      1.115819   705A      1.116101   706A      1.118361  
     707A      1.119406   708A      1.120748   709A      1.123292  
     710A      1.124866   711A      1.125023   712A      1.128357  
     713A      1.131168   714A      1.133503   715A      1.133962  
     716A      1.135167   717A      1.135268   718A      1.139070  
     719A      1.139640   720A      1.140113   721A      1.140934  
     722A      1.142275   723A      1.143704   724A      1.146176  
     725A      1.149279   726A      1.151387   727A      1.152092  
     728A      1.153611   729A      1.156393   730A      1.156924  
     731A      1.161630   732A      1.163993   733A      1.165479  
     734A      1.166745   735A      1.168823   736A      1.169851  
     737A      1.172013   738A      1.173706   739A      1.173989  
     740A      1.175138   741A      1.176926   742A      1.180168  
     743A      1.182810   744A      1.183709   745A      1.185585  
     746A      1.186989   747A      1.190911   748A      1.194984  
     749A      1.195899   750A      1.196651   751A      1.199807  
     752A      1.201417   753A      1.204270   754A      1.205603  
     755A      1.206964   756A      1.209485   757A      1.212037  
     758A      1.212431   759A      1.212875   760A      1.213818  
     761A      1.213944   762A      1.216981   763A      1.220091  
     764A      1.221171   765A      1.224493   766A      1.230550  
     767A      1.231060   768A      1.232337   769A      1.233433  
     770A      1.235425   771A      1.237208   772A      1.238390  
     773A      1.240056   774A      1.243126   775A      1.245147  
     776A      1.248193   777A      1.249341   778A      1.252223  
     779A      1.256686   780A      1.258308   781A      1.260049  
     782A      1.260423   783A      1.263266   784A      1.264622  
     785A      1.266819   786A      1.268789   787A      1.269486  
     788A      1.271399   789A      1.271810   790A      1.273920  
     791A      1.277457   792A      1.278634   793A      1.280499  
     794A      1.282505   795A      1.282956   796A      1.284827  
     797A      1.289189   798A      1.292473   799A      1.295561  
     800A      1.301799   801A      1.302325   802A      1.302848  
     803A      1.304210   804A      1.307854   805A      1.308829  
     806A      1.311463   807A      1.312879   808A      1.315349  
     809A      1.316518   810A      1.319370   811A      1.320385  
     812A      1.322431   813A      1.323846   814A      1.329904  
     815A      1.331729   816A      1.332869   817A      1.333463  
     818A      1.335339   819A      1.338894   820A      1.342206  
     821A      1.346226   822A      1.349552   823A      1.350306  
     824A      1.351425   825A      1.352186   826A      1.355767  
     827A      1.359891   828A      1.361757   829A      1.364644  
     830A      1.365920   831A      1.371992   832A      1.372834  
     833A      1.377940   834A      1.378710   835A      1.383199  
     836A      1.384755   837A      1.386626   838A      1.387709  
     839A      1.387997   840A      1.390248   841A      1.394981  
     842A      1.398857   843A      1.399876   844A      1.402568  
     845A      1.408719   846A      1.413227   847A      1.416924  
     848A      1.420666   849A      1.421237   850A      1.422179  
     851A      1.431106   852A      1.432391   853A      1.434153  
     854A      1.439159   855A      1.442748   856A      1.445538  
     857A      1.445699   858A      1.446172   859A      1.450818  
     860A      1.456229   861A      1.460696   862A      1.465810  
     863A      1.468898   864A      1.474205   865A      1.479513  
     866A      1.484344   867A      1.485042   868A      1.488710  
     869A      1.494766   870A      1.497857   871A      1.499240  
     872A      1.501395   873A      1.505301   874A      1.505933  
     875A      1.507622   876A      1.510891   877A      1.514864  
     878A      1.519736   879A      1.521744   880A      1.521800  
     881A      1.524960   882A      1.526466   883A      1.529056  
     884A      1.530746   885A      1.534461   886A      1.535912  
     887A      1.540376   888A      1.542764   889A      1.543277  
     890A      1.546281   891A      1.548012   892A      1.551870  
     893A      1.555770   894A      1.561016   895A      1.564731  
     896A      1.568100   897A      1.570951   898A      1.575775  
     899A      1.577864   900A      1.579053   901A      1.582504  
     902A      1.583280   903A      1.584356   904A      1.590507  
     905A      1.591654   906A      1.595162   907A      1.597485  
     908A      1.599296   909A      1.599449   910A      1.603453  
     911A      1.608789   912A      1.609334   913A      1.611751  
     914A      1.617060   915A      1.620616   916A      1.622851  
     917A      1.625125   918A      1.625516   919A      1.628970  
     920A      1.634062   921A      1.636120   922A      1.637938  
     923A      1.641660   924A      1.648438   925A      1.653024  
     926A      1.653700   927A      1.655527   928A      1.656582  
     929A      1.658767   930A      1.660508   931A      1.661946  
     932A      1.666076   933A      1.671996   934A      1.675676  
     935A      1.680524   936A      1.681174   937A      1.684614  
     938A      1.689577   939A      1.691945   940A      1.695036  
     941A      1.697403   942A      1.697978   943A      1.701297  
     944A      1.706813   945A      1.706916   946A      1.708413  
     947A      1.712275   948A      1.720472   949A      1.721313  
     950A      1.722509   951A      1.725610   952A      1.729093  
     953A      1.732637   954A      1.732996   955A      1.733858  
     956A      1.736650   957A      1.737274   958A      1.739312  
     959A      1.745612   960A      1.751583   961A      1.752771  
     962A      1.753876   963A      1.756171   964A      1.758956  
     965A      1.763025   966A      1.764634   967A      1.765783  
     968A      1.767787   969A      1.770847   970A      1.773420  
     971A      1.777628   972A      1.780929   973A      1.782307  
     974A      1.783384   975A      1.785608   976A      1.786613  
     977A      1.786978   978A      1.787229   979A      1.790916  
     980A      1.792931   981A      1.795542   982A      1.800029  
     983A      1.802507   984A      1.803983   985A      1.807623  
     986A      1.813404   987A      1.816648   988A      1.819575  
     989A      1.821129   990A      1.822323   991A      1.829271  
     992A      1.831234   993A      1.832593   994A      1.836152  
     995A      1.838125   996A      1.839608   997A      1.840815  
     998A      1.842679   999A      1.844299  1000A      1.854252  
    1001A      1.855585  1002A      1.857258  1003A      1.861308  
    1004A      1.862828  1005A      1.865721  1006A      1.866661  
    1007A      1.870988  1008A      1.874333  1009A      1.875915  
    1010A      1.878172  1011A      1.879076  1012A      1.880968  
    1013A      1.883157  1014A      1.887242  1015A      1.890422  
    1016A      1.894558  1017A      1.898448  1018A      1.901412  
    1019A      1.905141  1020A      1.907898  1021A      1.910597  
    1022A      1.911084  1023A      1.915904  1024A      1.916880  
    1025A      1.917998  1026A      1.920771  1027A      1.928416  
    1028A      1.929571  1029A      1.933179  1030A      1.933539  
    1031A      1.938403  1032A      1.940161  1033A      1.943674  
    1034A      1.944921  1035A      1.946310  1036A      1.949803  
    1037A      1.954272  1038A      1.957226  1039A      1.959400  
    1040A      1.961863  1041A      1.963094  1042A      1.966657  
    1043A      1.968181  1044A      1.970844  1045A      1.971914  
    1046A      1.974092  1047A      1.975429  1048A      1.977771  
    1049A      1.979155  1050A      1.981859  1051A      1.983929  
    1052A      1.984039  1053A      1.987978  1054A      1.992262  
    1055A      1.993096  1056A      1.995056  1057A      1.996355  
    1058A      1.996705  1059A      1.998213  1060A      2.000191  
    1061A      2.002028  1062A      2.004470  1063A      2.006235  
    1064A      2.014486  1065A      2.014602  1066A      2.016114  
    1067A      2.016713  1068A      2.021035  1069A      2.026219  
    1070A      2.027924  1071A      2.029315  1072A      2.030705  
    1073A      2.034909  1074A      2.035096  1075A      2.036136  
    1076A      2.041444  1077A      2.043470  1078A      2.043669  
    1079A      2.046582  1080A      2.048809  1081A      2.053851  
    1082A      2.055529  1083A      2.056333  1084A      2.056555  
    1085A      2.059845  1086A      2.060987  1087A      2.062525  
    1088A      2.065225  1089A      2.067794  1090A      2.068419  
    1091A      2.071574  1092A      2.073522  1093A      2.075253  
    1094A      2.078075  1095A      2.078156  1096A      2.079026  
    1097A      2.081001  1098A      2.083448  1099A      2.086787  
    1100A      2.086855  1101A      2.089675  1102A      2.090457  
    1103A      2.091718  1104A      2.094216  1105A      2.096342  
    1106A      2.097822  1107A      2.100861  1108A      2.101145  
    1109A      2.104326  1110A      2.104672  1111A      2.106992  
    1112A      2.111405  1113A      2.111575  1114A      2.114701  
    1115A      2.116059  1116A      2.120543  1117A      2.124088  
    1118A      2.125473  1119A      2.127152  1120A      2.128797  
    1121A      2.133254  1122A      2.133753  1123A      2.133894  
    1124A      2.137674  1125A      2.141859  1126A      2.144547  
    1127A      2.144895  1128A      2.147988  1129A      2.149670  
    1130A      2.151690  1131A      2.154904  1132A      2.156805  
    1133A      2.162036  1134A      2.163557  1135A      2.165058  
    1136A      2.165120  1137A      2.168294  1138A      2.169627  
    1139A      2.172565  1140A      2.173296  1141A      2.174198  
    1142A      2.177769  1143A      2.178443  1144A      2.181567  
    1145A      2.183275  1146A      2.185169  1147A      2.186877  
    1148A      2.187991  1149A      2.190182  1150A      2.193468  
    1151A      2.196973  1152A      2.197837  1153A      2.202253  
    1154A      2.202870  1155A      2.203640  1156A      2.203985  
    1157A      2.207223  1158A      2.209783  1159A      2.214378  
    1160A      2.214603  1161A      2.215230  1162A      2.219876  
    1163A      2.220314  1164A      2.221799  1165A      2.225872  
    1166A      2.228308  1167A      2.229561  1168A      2.231188  
    1169A      2.235198  1170A      2.237290  1171A      2.238840  
    1172A      2.242680  1173A      2.244113  1174A      2.244219  
    1175A      2.249015  1176A      2.249828  1177A      2.254983  
    1178A      2.256207  1179A      2.256503  1180A      2.260436  
    1181A      2.262002  1182A      2.262392  1183A      2.264956  
    1184A      2.267869  1185A      2.269073  1186A      2.271069  
    1187A      2.275596  1188A      2.276972  1189A      2.278805  
    1190A      2.278990  1191A      2.281199  1192A      2.283946  
    1193A      2.288302  1194A      2.289210  1195A      2.291842  
    1196A      2.292618  1197A      2.294650  1198A      2.295578  
    1199A      2.299657  1200A      2.301194  1201A      2.301263  
    1202A      2.303066  1203A      2.303806  1204A      2.307256  
    1205A      2.308209  1206A      2.309441  1207A      2.312171  
    1208A      2.313613  1209A      2.316111  1210A      2.318738  
    1211A      2.320245  1212A      2.322641  1213A      2.324476  
    1214A      2.324785  1215A      2.328858  1216A      2.333825  
    1217A      2.334574  1218A      2.337818  1219A      2.339320  
    1220A      2.343164  1221A      2.344130  1222A      2.346620  
    1223A      2.347800  1224A      2.348110  1225A      2.348764  
    1226A      2.351388  1227A      2.353165  1228A      2.353673  
    1229A      2.355543  1230A      2.358716  1231A      2.359036  
    1232A      2.360822  1233A      2.362837  1234A      2.366180  
    1235A      2.367408  1236A      2.369676  1237A      2.371764  
    1238A      2.376954  1239A      2.380824  1240A      2.381763  
    1241A      2.383220  1242A      2.386040  1243A      2.386767  
    1244A      2.387014  1245A      2.387590  1246A      2.388489  
    1247A      2.390258  1248A      2.391058  1249A      2.393709  
    1250A      2.395830  1251A      2.398229  1252A      2.399759  
    1253A      2.403143  1254A      2.404438  1255A      2.406220  
    1256A      2.407442  1257A      2.408515  1258A      2.409825  
    1259A      2.412313  1260A      2.415708  1261A      2.415983  
    1262A      2.417588  1263A      2.421053  1264A      2.425144  
    1265A      2.426598  1266A      2.427002  1267A      2.430389  
    1268A      2.432771  1269A      2.434916  1270A      2.436434  
    1271A      2.439424  1272A      2.442250  1273A      2.442744  
    1274A      2.444198  1275A      2.444957  1276A      2.447769  
    1277A      2.450260  1278A      2.451723  1279A      2.452061  
    1280A      2.455500  1281A      2.456052  1282A      2.457549  
    1283A      2.459676  1284A      2.460494  1285A      2.464606  
    1286A      2.465343  1287A      2.469378  1288A      2.470659  
    1289A      2.473697  1290A      2.474384  1291A      2.477911  
    1292A      2.478874  1293A      2.480547  1294A      2.485956  
    1295A      2.486417  1296A      2.487840  1297A      2.487955  
    1298A      2.490649  1299A      2.493217  1300A      2.496929  
    1301A      2.498749  1302A      2.501612  1303A      2.503506  
    1304A      2.504907  1305A      2.508269  1306A      2.509450  
    1307A      2.511242  1308A      2.514387  1309A      2.516111  
    1310A      2.516468  1311A      2.518487  1312A      2.520794  
    1313A      2.521629  1314A      2.523596  1315A      2.523693  
    1316A      2.525074  1317A      2.525512  1318A      2.528717  
    1319A      2.535088  1320A      2.538139  1321A      2.540164  
    1322A      2.541533  1323A      2.544246  1324A      2.545112  
    1325A      2.546790  1326A      2.549951  1327A      2.552671  
    1328A      2.552861  1329A      2.553178  1330A      2.555135  
    1331A      2.558462  1332A      2.559881  1333A      2.564083  
    1334A      2.565431  1335A      2.566014  1336A      2.569626  
    1337A      2.573167  1338A      2.574926  1339A      2.575932  
    1340A      2.578816  1341A      2.583326  1342A      2.583476  
    1343A      2.585739  1344A      2.586903  1345A      2.589158  
    1346A      2.590221  1347A      2.590563  1348A      2.591755  
    1349A      2.592967  1350A      2.595121  1351A      2.597463  
    1352A      2.599035  1353A      2.603281  1354A      2.604266  
    1355A      2.604972  1356A      2.605038  1357A      2.607479  
    1358A      2.610865  1359A      2.614907  1360A      2.616083  
    1361A      2.617854  1362A      2.620974  1363A      2.621670  
    1364A      2.623009  1365A      2.623655  1366A      2.627474  
    1367A      2.628985  1368A      2.629640  1369A      2.630496  
    1370A      2.633678  1371A      2.637059  1372A      2.637435  
    1373A      2.637980  1374A      2.639105  1375A      2.643449  
    1376A      2.643845  1377A      2.647281  1378A      2.648485  
    1379A      2.648635  1380A      2.649928  1381A      2.651715  
    1382A      2.653929  1383A      2.655484  1384A      2.657483  
    1385A      2.658630  1386A      2.663730  1387A      2.664885  
    1388A      2.665144  1389A      2.668636  1390A      2.670669  
    1391A      2.674033  1392A      2.674993  1393A      2.678047  
    1394A      2.680899  1395A      2.683442  1396A      2.686613  
    1397A      2.689880  1398A      2.691118  1399A      2.695174  
    1400A      2.698263  1401A      2.698291  1402A      2.699453  
    1403A      2.700613  1404A      2.702686  1405A      2.704053  
    1406A      2.705852  1407A      2.708458  1408A      2.709588  
    1409A      2.712609  1410A      2.713635  1411A      2.718530  
    1412A      2.719914  1413A      2.723898  1414A      2.725356  
    1415A      2.728328  1416A      2.729591  1417A      2.732449  
    1418A      2.732656  1419A      2.735743  1420A      2.738076  
    1421A      2.742157  1422A      2.743474  1423A      2.744046  
    1424A      2.744128  1425A      2.747590  1426A      2.748051  
    1427A      2.750736  1428A      2.752127  1429A      2.754977  
    1430A      2.759970  1431A      2.761029  1432A      2.761635  
    1433A      2.764854  1434A      2.765948  1435A      2.768418  
    1436A      2.769572  1437A      2.772950  1438A      2.774054  
    1439A      2.775748  1440A      2.779390  1441A      2.781674  
    1442A      2.782333  1443A      2.785717  1444A      2.787454  
    1445A      2.787851  1446A      2.790741  1447A      2.791425  
    1448A      2.792327  1449A      2.793318  1450A      2.795845  
    1451A      2.802011  1452A      2.803570  1453A      2.806608  
    1454A      2.808365  1455A      2.808534  1456A      2.810961  
    1457A      2.814448  1458A      2.816272  1459A      2.817009  
    1460A      2.820989  1461A      2.823405  1462A      2.826605  
    1463A      2.828438  1464A      2.829321  1465A      2.831070  
    1466A      2.835728  1467A      2.839117  1468A      2.843860  
    1469A      2.849303  1470A      2.851088  1471A      2.853431  
    1472A      2.854354  1473A      2.855176  1474A      2.856683  
    1475A      2.859490  1476A      2.860175  1477A      2.863522  
    1478A      2.866269  1479A      2.866338  1480A      2.867702  
    1481A      2.869336  1482A      2.872387  1483A      2.874650  
    1484A      2.877958  1485A      2.879342  1486A      2.886375  
    1487A      2.887671  1488A      2.889573  1489A      2.891698  
    1490A      2.894846  1491A      2.896462  1492A      2.897176  
    1493A      2.899480  1494A      2.900400  1495A      2.901484  
    1496A      2.906808  1497A      2.908868  1498A      2.911671  
    1499A      2.912023  1500A      2.914304  1501A      2.916659  
    1502A      2.924252  1503A      2.925144  1504A      2.929576  
    1505A      2.931605  1506A      2.932942  1507A      2.935764  
    1508A      2.939455  1509A      2.942999  1510A      2.945641  
    1511A      2.945990  1512A      2.947217  1513A      2.951467  
    1514A      2.952380  1515A      2.954261  1516A      2.956833  
    1517A      2.959638  1518A      2.961333  1519A      2.967423  
    1520A      2.968599  1521A      2.971110  1522A      2.972636  
    1523A      2.975219  1524A      2.976717  1525A      2.977494  
    1526A      2.978840  1527A      2.981174  1528A      2.982766  
    1529A      2.983824  1530A      2.986636  1531A      2.992372  
    1532A      2.994983  1533A      2.999661  1534A      3.004370  
    1535A      3.005470  1536A      3.005802  1537A      3.006739  
    1538A      3.007462  1539A      3.013115  1540A      3.014391  
    1541A      3.019064  1542A      3.019256  1543A      3.021656  
    1544A      3.021729  1545A      3.026108  1546A      3.027856  
    1547A      3.032521  1548A      3.035130  1549A      3.037335  
    1550A      3.037454  1551A      3.039798  1552A      3.042400  
    1553A      3.042438  1554A      3.043284  1555A      3.046640  
    1556A      3.049114  1557A      3.050068  1558A      3.053262  
    1559A      3.054582  1560A      3.059490  1561A      3.060151  
    1562A      3.060598  1563A      3.062005  1564A      3.064506  
    1565A      3.066870  1566A      3.070600  1567A      3.072867  
    1568A      3.077160  1569A      3.078047  1570A      3.081181  
    1571A      3.083528  1572A      3.084526  1573A      3.085624  
    1574A      3.086770  1575A      3.087964  1576A      3.089142  
    1577A      3.089939  1578A      3.095934  1579A      3.096153  
    1580A      3.099213  1581A      3.103084  1582A      3.104058  
    1583A      3.105032  1584A      3.108858  1585A      3.109130  
    1586A      3.112275  1587A      3.113561  1588A      3.115908  
    1589A      3.121534  1590A      3.123970  1591A      3.126605  
    1592A      3.126930  1593A      3.128835  1594A      3.131495  
    1595A      3.133673  1596A      3.133971  1597A      3.136165  
    1598A      3.141358  1599A      3.144672  1600A      3.147689  
    1601A      3.149556  1602A      3.152135  1603A      3.153391  
    1604A      3.154559  1605A      3.160442  1606A      3.163339  
    1607A      3.163853  1608A      3.165058  1609A      3.170159  
    1610A      3.175631  1611A      3.176229  1612A      3.177878  
    1613A      3.181157  1614A      3.182341  1615A      3.183379  
    1616A      3.186677  1617A      3.188927  1618A      3.192395  
    1619A      3.196978  1620A      3.202042  1621A      3.202240  
    1622A      3.205920  1623A      3.210002  1624A      3.212945  
    1625A      3.215950  1626A      3.216208  1627A      3.221598  
    1628A      3.223776  1629A      3.226085  1630A      3.226328  
    1631A      3.232833  1632A      3.233996  1633A      3.234589  
    1634A      3.236346  1635A      3.239653  1636A      3.241834  
    1637A      3.246352  1638A      3.249152  1639A      3.250928  
    1640A      3.255913  1641A      3.256102  1642A      3.260862  
    1643A      3.264547  1644A      3.267694  1645A      3.270655  
    1646A      3.272237  1647A      3.274412  1648A      3.276460  
    1649A      3.281326  1650A      3.282060  1651A      3.289547  
    1652A      3.293051  1653A      3.296604  1654A      3.298529  
    1655A      3.298713  1656A      3.300658  1657A      3.302493  
    1658A      3.305636  1659A      3.307391  1660A      3.309616  
    1661A      3.315166  1662A      3.315326  1663A      3.316543  
    1664A      3.322726  1665A      3.325612  1666A      3.325798  
    1667A      3.326980  1668A      3.330544  1669A      3.333663  
    1670A      3.335973  1671A      3.336189  1672A      3.340181  
    1673A      3.343108  1674A      3.343759  1675A      3.346922  
    1676A      3.348899  1677A      3.355476  1678A      3.359079  
    1679A      3.360760  1680A      3.362189  1681A      3.363003  
    1682A      3.365726  1683A      3.367080  1684A      3.368402  
    1685A      3.368867  1686A      3.374444  1687A      3.374893  
    1688A      3.377544  1689A      3.382392  1690A      3.383826  
    1691A      3.385728  1692A      3.387694  1693A      3.391372  
    1694A      3.397325  1695A      3.399415  1696A      3.399682  
    1697A      3.400855  1698A      3.404430  1699A      3.408117  
    1700A      3.408972  1701A      3.412561  1702A      3.414652  
    1703A      3.420258  1704A      3.423451  1705A      3.423896  
    1706A      3.424043  1707A      3.427854  1708A      3.432715  
    1709A      3.435722  1710A      3.435804  1711A      3.436601  
    1712A      3.438456  1713A      3.441812  1714A      3.443387  
    1715A      3.444213  1716A      3.447780  1717A      3.451977  
    1718A      3.453139  1719A      3.455731  1720A      3.456102  
    1721A      3.456975  1722A      3.466161  1723A      3.469417  
    1724A      3.472916  1725A      3.474511  1726A      3.475153  
    1727A      3.476721  1728A      3.478021  1729A      3.482317  
    1730A      3.487709  1731A      3.490893  1732A      3.495151  
    1733A      3.498025  1734A      3.499435  1735A      3.500788  
    1736A      3.501688  1737A      3.503453  1738A      3.505039  
    1739A      3.507830  1740A      3.507885  1741A      3.514195  
    1742A      3.514627  1743A      3.514991  1744A      3.519233  
    1745A      3.520303  1746A      3.525418  1747A      3.529144  
    1748A      3.529887  1749A      3.531493  1750A      3.535000  
    1751A      3.536710  1752A      3.540018  1753A      3.542611  
    1754A      3.542885  1755A      3.545092  1756A      3.545999  
    1757A      3.552000  1758A      3.561827  1759A      3.562815  
    1760A      3.565600  1761A      3.568850  1762A      3.569482  
    1763A      3.571572  1764A      3.572411  1765A      3.578355  
    1766A      3.580485  1767A      3.581457  1768A      3.583137  
    1769A      3.584982  1770A      3.587939  1771A      3.589911  
    1772A      3.594406  1773A      3.596152  1774A      3.601375  
    1775A      3.606697  1776A      3.606787  1777A      3.608733  
    1778A      3.611834  1779A      3.613422  1780A      3.615485  
    1781A      3.615867  1782A      3.618370  1783A      3.621956  
    1784A      3.624479  1785A      3.626403  1786A      3.628239  
    1787A      3.630044  1788A      3.631892  1789A      3.632468  
    1790A      3.633845  1791A      3.635619  1792A      3.636068  
    1793A      3.640835  1794A      3.643984  1795A      3.646178  
    1796A      3.646991  1797A      3.649281  1798A      3.654033  
    1799A      3.655450  1800A      3.662660  1801A      3.663273  
    1802A      3.664103  1803A      3.666665  1804A      3.667173  
    1805A      3.670131  1806A      3.672211  1807A      3.676255  
    1808A      3.676977  1809A      3.678250  1810A      3.680267  
    1811A      3.684815  1812A      3.688859  1813A      3.692752  
    1814A      3.694084  1815A      3.696284  1816A      3.697085  
    1817A      3.701058  1818A      3.702411  1819A      3.709409  
    1820A      3.713391  1821A      3.716525  1822A      3.720775  
    1823A      3.725004  1824A      3.727440  1825A      3.729864  
    1826A      3.731910  1827A      3.739412  1828A      3.739911  
    1829A      3.742414  1830A      3.743250  1831A      3.744830  
    1832A      3.750238  1833A      3.755129  1834A      3.757490  
    1835A      3.760375  1836A      3.763143  1837A      3.765229  
    1838A      3.765787  1839A      3.766553  1840A      3.768468  
    1841A      3.770702  1842A      3.772822  1843A      3.773817  
    1844A      3.774050  1845A      3.774343  1846A      3.778874  
    1847A      3.784745  1848A      3.785915  1849A      3.792231  
    1850A      3.793275  1851A      3.797613  1852A      3.800822  
    1853A      3.802278  1854A      3.805317  1855A      3.806890  
    1856A      3.814444  1857A      3.815783  1858A      3.817657  
    1859A      3.817937  1860A      3.818338  1861A      3.828843  
    1862A      3.830430  1863A      3.832470  1864A      3.832528  
    1865A      3.835603  1866A      3.836509  1867A      3.839692  
    1868A      3.840418  1869A      3.844287  1870A      3.845514  
    1871A      3.846727  1872A      3.850823  1873A      3.852811  
    1874A      3.855660  1875A      3.858008  1876A      3.859003  
    1877A      3.861856  1878A      3.863446  1879A      3.864270  
    1880A      3.866814  1881A      3.867847  1882A      3.870051  
    1883A      3.873744  1884A      3.875755  1885A      3.879116  
    1886A      3.883314  1887A      3.886672  1888A      3.888380  
    1889A      3.888849  1890A      3.898215  1891A      3.903926  
    1892A      3.904828  1893A      3.907137  1894A      3.907611  
    1895A      3.911616  1896A      3.914581  1897A      3.916998  
    1898A      3.917445  1899A      3.922315  1900A      3.923372  
    1901A      3.925304  1902A      3.927024  1903A      3.930974  
    1904A      3.931239  1905A      3.932944  1906A      3.938361  
    1907A      3.943939  1908A      3.948724  1909A      3.954403  
    1910A      3.955832  1911A      3.956539  1912A      3.959878  
    1913A      3.961213  1914A      3.964733  1915A      3.967290  
    1916A      3.974169  1917A      3.976645  1918A      3.979977  
    1919A      3.982581  1920A      3.986966  1921A      3.988604  
    1922A      3.989399  1923A      3.992205  1924A      3.993698  
    1925A      3.994653  1926A      3.995922  1927A      3.996014  
    1928A      3.999183  1929A      4.004621  1930A      4.006461  
    1931A      4.006877  1932A      4.009799  1933A      4.017907  
    1934A      4.019015  1935A      4.026872  1936A      4.030000  
    1937A      4.031855  1938A      4.033628  1939A      4.039221  
    1940A      4.041790  1941A      4.045101  1942A      4.046899  
    1943A      4.051223  1944A      4.060411  1945A      4.064612  
    1946A      4.065920  1947A      4.071899  1948A      4.072443  
    1949A      4.073348  1950A      4.074529  1951A      4.078389  
    1952A      4.078658  1953A      4.086423  1954A      4.091293  
    1955A      4.097134  1956A      4.098020  1957A      4.100471  
    1958A      4.101937  1959A      4.103687  1960A      4.107544  
    1961A      4.110050  1962A      4.114181  1963A      4.118214  
    1964A      4.121410  1965A      4.125254  1966A      4.127449  
    1967A      4.133100  1968A      4.138650  1969A      4.140677  
    1970A      4.141322  1971A      4.142749  1972A      4.146380  
    1973A      4.147293  1974A      4.154430  1975A      4.155981  
    1976A      4.158383  1977A      4.159894  1978A      4.164611  
    1979A      4.169154  1980A      4.169941  1981A      4.171263  
    1982A      4.173455  1983A      4.176764  1984A      4.179605  
    1985A      4.183056  1986A      4.183239  1987A      4.187832  
    1988A      4.190242  1989A      4.191743  1990A      4.198752  
    1991A      4.200705  1992A      4.202946  1993A      4.207478  
    1994A      4.209336  1995A      4.210283  1996A      4.218810  
    1997A      4.219645  1998A      4.219677  1999A      4.225632  
    2000A      4.229357  2001A      4.230599  2002A      4.234457  
    2003A      4.239053  2004A      4.240758  2005A      4.242281  
    2006A      4.249079  2007A      4.256350  2008A      4.258454  
    2009A      4.259297  2010A      4.260669  2011A      4.261947  
    2012A      4.263246  2013A      4.265021  2014A      4.268066  
    2015A      4.277921  2016A      4.280315  2017A      4.283268  
    2018A      4.283467  2019A      4.295356  2020A      4.302398  
    2021A      4.304777  2022A      4.306571  2023A      4.307794  
    2024A      4.312123  2025A      4.312785  2026A      4.320231  
    2027A      4.323619  2028A      4.323802  2029A      4.325541  
    2030A      4.329477  2031A      4.334266  2032A      4.335104  
    2033A      4.340297  2034A      4.344318  2035A      4.348253  
    2036A      4.349901  2037A      4.355284  2038A      4.355841  
    2039A      4.365272  2040A      4.367957  2041A      4.370739  
    2042A      4.371124  2043A      4.373705  2044A      4.376823  
    2045A      4.380158  2046A      4.384595  2047A      4.385365  
    2048A      4.388797  2049A      4.389289  2050A      4.393483  
    2051A      4.399323  2052A      4.406826  2053A      4.407630  
    2054A      4.409372  2055A      4.414750  2056A      4.418521  
    2057A      4.421114  2058A      4.424689  2059A      4.426719  
    2060A      4.430464  2061A      4.434677  2062A      4.436033  
    2063A      4.438629  2064A      4.442215  2065A      4.445081  
    2066A      4.447735  2067A      4.452191  2068A      4.462500  
    2069A      4.463508  2070A      4.465399  2071A      4.469565  
    2072A      4.470640  2073A      4.470878  2074A      4.474828  
    2075A      4.477136  2076A      4.479030  2077A      4.486804  
    2078A      4.487926  2079A      4.489983  2080A      4.497943  
    2081A      4.501639  2082A      4.502077  2083A      4.504679  
    2084A      4.505882  2085A      4.511455  2086A      4.511888  
    2087A      4.518056  2088A      4.520950  2089A      4.522784  
    2090A      4.523714  2091A      4.526454  2092A      4.528430  
    2093A      4.531068  2094A      4.539862  2095A      4.546145  
    2096A      4.547596  2097A      4.550415  2098A      4.552443  
    2099A      4.557396  2100A      4.557643  2101A      4.563326  
    2102A      4.564530  2103A      4.567194  2104A      4.576936  
    2105A      4.584183  2106A      4.585552  2107A      4.591894  
    2108A      4.592652  2109A      4.597411  2110A      4.598700  
    2111A      4.600424  2112A      4.613804  2113A      4.616352  
    2114A      4.617774  2115A      4.622284  2116A      4.624826  
    2117A      4.629099  2118A      4.631974  2119A      4.632224  
    2120A      4.634637  2121A      4.637671  2122A      4.640061  
    2123A      4.645830  2124A      4.647211  2125A      4.648556  
    2126A      4.653218  2127A      4.654567  2128A      4.661393  
    2129A      4.661997  2130A      4.664734  2131A      4.666445  
    2132A      4.674528  2133A      4.682618  2134A      4.683011  
    2135A      4.685983  2136A      4.690683  2137A      4.695966  
    2138A      4.703111  2139A      4.703709  2140A      4.706254  
    2141A      4.712652  2142A      4.715550  2143A      4.717520  
    2144A      4.724109  2145A      4.729632  2146A      4.731249  
    2147A      4.732006  2148A      4.739402  2149A      4.742065  
    2150A      4.746216  2151A      4.751625  2152A      4.754422  
    2153A      4.758165  2154A      4.761761  2155A      4.772496  
    2156A      4.784945  2157A      4.785406  2158A      4.788991  
    2159A      4.795590  2160A      4.803619  2161A      4.807165  
    2162A      4.813915  2163A      4.814811  2164A      4.815223  
    2165A      4.817203  2166A      4.819081  2167A      4.820788  
    2168A      4.823945  2169A      4.824407  2170A      4.830210  
    2171A      4.832681  2172A      4.832955  2173A      4.835486  
    2174A      4.839089  2175A      4.839306  2176A      4.842695  
    2177A      4.852833  2178A      4.865789  2179A      4.868824  
    2180A      4.870988  2181A      4.875058  2182A      4.886968  
    2183A      4.890001  2184A      4.891892  2185A      4.895330  
    2186A      4.907302  2187A      4.913583  2188A      4.917357  
    2189A      4.921774  2190A      4.923233  2191A      4.924862  
    2192A      4.926968  2193A      4.930188  2194A      4.932129  
    2195A      4.952172  2196A      4.961712  2197A      4.973995  
    2198A      4.981732  2199A      4.991222  2200A      4.995354  
    2201A      4.997371  2202A      5.000495  2203A      5.008753  
    2204A      5.017374  2205A      5.021127  2206A      5.028236  
    2207A      5.031264  2208A      5.034201  2209A      5.035080  
    2210A      5.037644  2211A      5.057358  2212A      5.070919  
    2213A      5.072459  2214A      5.077221  2215A      5.082332  
    2216A      5.089266  2217A      5.090056  2218A      5.094121  
    2219A      5.102119  2220A      5.120843  2221A      5.121017  
    2222A      5.125182  2223A      5.131284  2224A      5.133509  
    2225A      5.148962  2226A      5.159691  2227A      5.165437  
    2228A      5.171008  2229A      5.179382  2230A      5.181688  
    2231A      5.186027  2232A      5.192350  2233A      5.211309  
    2234A      5.242238  2235A      5.243971  2236A      5.259087  
    2237A      5.265116  2238A      5.275364  2239A      5.280825  
    2240A      5.287522  2241A      5.288715  2242A      5.294071  
    2243A      5.303822  2244A      5.307883  2245A      5.313689  
    2246A      5.322377  2247A      5.340391  2248A      5.346571  
    2249A      5.350202  2250A      5.358067  2251A      5.363000  
    2252A      5.375484  2253A      5.378690  2254A      5.383199  
    2255A      5.384100  2256A      5.392475  2257A      5.394173  
    2258A      5.401140  2259A      5.402576  2260A      5.411242  
    2261A      5.424232  2262A      5.432886  2263A      5.440754  
    2264A      5.441140  2265A      5.442267  2266A      5.462526  
    2267A      5.463887  2268A      5.468361  2269A      5.482905  
    2270A      5.483236  2271A      5.496325  2272A      5.504972  
    2273A      5.506452  2274A      5.507230  2275A      5.510326  
    2276A      5.515784  2277A      5.546479  2278A      5.551053  
    2279A      5.559250  2280A      5.561422  2281A      5.567646  
    2282A      5.572624  2283A      5.580777  2284A      5.585882  
    2285A      5.589615  2286A      5.590460  2287A      5.592121  
    2288A      5.596297  2289A      5.596506  2290A      5.600330  
    2291A      5.609064  2292A      5.614131  2293A      5.617544  
    2294A      5.622039  2295A      5.624305  2296A      5.633219  
    2297A      5.655233  2298A      5.660804  2299A      5.663446  
    2300A      5.664256  2301A      5.666247  2302A      5.686699  
    2303A      5.686925  2304A      5.704424  2305A      5.708140  
    2306A      5.708461  2307A      5.713524  2308A      5.725855  
    2309A      5.732812  2310A      5.732870  2311A      5.734114  
    2312A      5.748354  2313A      5.749496  2314A      5.752259  
    2315A      5.755800  2316A      5.758404  2317A      5.764762  
    2318A      5.768063  2319A      5.774628  2320A      5.776774  
    2321A      5.781100  2322A      5.781590  2323A      5.781879  
    2324A      5.785715  2325A      5.787740  2326A      5.789117  
    2327A      5.799297  2328A      5.802904  2329A      5.805082  
    2330A      5.812693  2331A      5.814257  2332A      5.817430  
    2333A      5.823957  2334A      5.826757  2335A      5.832492  
    2336A      5.836328  2337A      5.838101  2338A      5.840681  
    2339A      5.845878  2340A      5.850246  2341A      5.852321  
    2342A      5.855404  2343A      5.857245  2344A      5.857738  
    2345A      5.860553  2346A      5.866216  2347A      5.869483  
    2348A      5.871071  2349A      5.874086  2350A      5.875520  
    2351A      5.881827  2352A      5.883553  2353A      5.887396  
    2354A      5.890270  2355A      5.893457  2356A      5.897806  
    2357A      5.900919  2358A      5.903311  2359A      5.903521  
    2360A      5.911855  2361A      5.913648  2362A      5.915763  
    2363A      5.917920  2364A      5.920889  2365A      5.922896  
    2366A      5.926585  2367A      5.936067  2368A      5.936812  
    2369A      5.941738  2370A      5.942970  2371A      5.944537  
    2372A      5.951173  2373A      5.951943  2374A      5.954009  
    2375A      5.954936  2376A      5.959067  2377A      5.965124  
    2378A      5.966549  2379A      5.967359  2380A      5.974697  
    2381A      5.975110  2382A      5.977019  2383A      5.980235  
    2384A      5.981932  2385A      5.987964  2386A      5.989126  
    2387A      5.991810  2388A      5.993920  2389A      5.994210  
    2390A      6.001434  2391A      6.001612  2392A      6.001935  
    2393A      6.006996  2394A      6.007644  2395A      6.012235  
    2396A      6.014524  2397A      6.020297  2398A      6.020847  
    2399A      6.023575  2400A      6.024625  2401A      6.031278  
    2402A      6.033683  2403A      6.037801  2404A      6.038813  
    2405A      6.042006  2406A      6.045528  2407A      6.045787  
    2408A      6.048622  2409A      6.051615  2410A      6.059596  
    2411A      6.060403  2412A      6.061304  2413A      6.065032  
    2414A      6.065900  2415A      6.069487  2416A      6.071795  
    2417A      6.074680  2418A      6.077442  2419A      6.083562  
    2420A      6.083996  2421A      6.085301  2422A      6.087489  
    2423A      6.091285  2424A      6.095168  2425A      6.097492  
    2426A      6.100379  2427A      6.101051  2428A      6.103217  
    2429A      6.110905  2430A      6.113615  2431A      6.116927  
    2432A      6.117429  2433A      6.123522  2434A      6.127296  
    2435A      6.128794  2436A      6.130707  2437A      6.133138  
    2438A      6.135495  2439A      6.137184  2440A      6.139430  
    2441A      6.143850  2442A      6.144804  2443A      6.146396  
    2444A      6.147479  2445A      6.150890  2446A      6.153466  
    2447A      6.157399  2448A      6.159205  2449A      6.165762  
    2450A      6.166238  2451A      6.166532  2452A      6.167202  
    2453A      6.170397  2454A      6.171279  2455A      6.171425  
    2456A      6.175808  2457A      6.179325  2458A      6.180426  
    2459A      6.180537  2460A      6.185540  2461A      6.186775  
    2462A      6.187837  2463A      6.188354  2464A      6.194132  
    2465A      6.196234  2466A      6.197623  2467A      6.197890  
    2468A      6.200865  2469A      6.201769  2470A      6.203887  
    2471A      6.208659  2472A      6.212814  2473A      6.215020  
    2474A      6.215139  2475A      6.215795  2476A      6.217026  
    2477A      6.217610  2478A      6.223352  2479A      6.223923  
    2480A      6.226457  2481A      6.227129  2482A      6.229051  
    2483A      6.230252  2484A      6.231767  2485A      6.237020  
    2486A      6.237755  2487A      6.242621  2488A      6.249375  
    2489A      6.253379  2490A      6.253833  2491A      6.256832  
    2492A      6.257971  2493A      6.258784  2494A      6.261366  
    2495A      6.263470  2496A      6.267332  2497A      6.268192  
    2498A      6.269307  2499A      6.273447  2500A      6.275772  
    2501A      6.278996  2502A      6.281606  2503A      6.282038  
    2504A      6.287510  2505A      6.291787  2506A      6.296091  
    2507A      6.297684  2508A      6.301664  2509A      6.301681  
    2510A      6.302497  2511A      6.303763  2512A      6.308760  
    2513A      6.310162  2514A      6.315601  2515A      6.322614  
    2516A      6.322818  2517A      6.325302  2518A      6.331688  
    2519A      6.333207  2520A      6.336440  2521A      6.337043  
    2522A      6.339212  2523A      6.339803  2524A      6.340542  
    2525A      6.346153  2526A      6.348584  2527A      6.349403  
    2528A      6.349462  2529A      6.356919  2530A      6.357397  
    2531A      6.358258  2532A      6.363649  2533A      6.364225  
    2534A      6.366496  2535A      6.366542  2536A      6.370644  
    2537A      6.371581  2538A      6.373400  2539A      6.374211  
    2540A      6.379351  2541A      6.379478  2542A      6.383356  
    2543A      6.387086  2544A      6.388838  2545A      6.390189  
    2546A      6.393960  2547A      6.396596  2548A      6.397629  
    2549A      6.398035  2550A      6.400083  2551A      6.400820  
    2552A      6.402463  2553A      6.405471  2554A      6.406162  
    2555A      6.408524  2556A      6.411666  2557A      6.412913  
    2558A      6.415678  2559A      6.416272  2560A      6.421832  
    2561A      6.430376  2562A      6.431518  2563A      6.432640  
    2564A      6.435335  2565A      6.440416  2566A      6.443507  
    2567A      6.444173  2568A      6.445516  2569A      6.446742  
    2570A      6.448839  2571A      6.451539  2572A      6.452981  
    2573A      6.458867  2574A      6.460832  2575A      6.463308  
    2576A      6.464058  2577A      6.466127  2578A      6.469117  
    2579A      6.469578  2580A      6.475552  2581A      6.477302  
    2582A      6.477614  2583A      6.480351  2584A      6.483398  
    2585A      6.483871  2586A      6.486852  2587A      6.489902  
    2588A      6.490887  2589A      6.494143  2590A      6.496086  
    2591A      6.499035  2592A      6.499310  2593A      6.500913  
    2594A      6.502430  2595A      6.502898  2596A      6.506723  
    2597A      6.507580  2598A      6.509045  2599A      6.510406  
    2600A      6.511191  2601A      6.513175  2602A      6.516620  
    2603A      6.524069  2604A      6.526251  2605A      6.526546  
    2606A      6.531862  2607A      6.534026  2608A      6.537577  
    2609A      6.539807  2610A      6.542132  2611A      6.544635  
    2612A      6.553057  2613A      6.557521  2614A      6.560191  
    2615A      6.561197  2616A      6.566432  2617A      6.568092  
    2618A      6.569732  2619A      6.573716  2620A      6.576399  
    2621A      6.578013  2622A      6.580329  2623A      6.586270  
    2624A      6.587010  2625A      6.587088  2626A      6.588147  
    2627A      6.589988  2628A      6.593339  2629A      6.594910  
    2630A      6.595790  2631A      6.596657  2632A      6.599396  
    2633A      6.603356  2634A      6.603717  2635A      6.605923  
    2636A      6.607759  2637A      6.616758  2638A      6.618496  
    2639A      6.619415  2640A      6.621595  2641A      6.624186  
[...]
    3548A      9.303161  3549A      9.304268  3550A      9.305874  
    3551A      9.310320  3552A      9.312904  3553A      9.316997  
    3554A      9.323435  3555A      9.324278  3556A      9.327730  
    3557A      9.331121  3558A      9.332032  3559A      9.335907  
    3560A      9.336710  3561A      9.339361  3562A      9.343593  
    3563A      9.349486  3564A      9.349657  3565A      9.355345  
    3566A      9.356131  3567A      9.358684  3568A      9.360533  
    3569A      9.363267  3570A      9.363501  3571A      9.364059  
    3572A      9.364877  3573A      9.369342  3574A      9.371017  
    3575A      9.374880  3576A      9.376135  3577A      9.376787  
    3578A      9.379603  3579A      9.380674  3580A      9.382051  
    3581A      9.383484  3582A      9.384073  3583A      9.386616  
    3584A      9.387131  3585A      9.389134  3586A      9.389211  
    3587A      9.391655  3588A      9.391900  3589A      9.394285  
    3590A      9.399824  3591A      9.401219  3592A      9.401936  
    3593A      9.404452  3594A      9.405183  3595A      9.407140  
    3596A      9.408325  3597A      9.408744  3598A      9.409360  
    3599A      9.411245  3600A      9.412942  3601A      9.414003  
    3602A      9.414799  3603A      9.418374  3604A      9.422077  
    3605A      9.422776  3606A      9.426811  3607A      9.429136  
    3608A      9.429744  3609A      9.431500  3610A      9.433084  
    3611A      9.435066  3612A      9.439609  3613A      9.442758  
    3614A      9.443202  3615A      9.448833  3616A      9.449710  
    3617A      9.451550  3618A      9.459311  3619A      9.459644  
    3620A      9.461456  3621A      9.465388  3622A      9.468017  
    3623A      9.470801  3624A      9.472841  3625A      9.475552  
    3626A      9.478051  3627A      9.483255  3628A      9.483946  
    3629A      9.491213  3630A      9.492088  3631A      9.496964  
    3632A      9.503509  3633A      9.507353  3634A      9.507819  
    3635A      9.513754  3636A      9.515104  3637A      9.521469  
    3638A      9.526280  3639A      9.526849  3640A      9.528747  
    3641A      9.530781  3642A      9.540614  3643A      9.545317  
    3644A      9.551922  3645A      9.553901  3646A      9.558012  
    3647A      9.562808  3648A      9.563533  3649A      9.565173  
    3650A      9.571919  3651A      9.578344  3652A      9.581844  
    3653A      9.583591  3654A      9.591637  3655A      9.594973  
    3656A      9.596681  3657A      9.597500  3658A      9.602629  
    3659A      9.605278  3660A      9.606118  3661A      9.606796  
    3662A      9.610206  3663A      9.612751  3664A      9.613919  
    3665A      9.619052  3666A      9.622238  3667A      9.625322  
    3668A      9.627900  3669A      9.630797  3670A      9.637764  
    3671A      9.637936  3672A      9.639747  3673A      9.650960  
    3674A      9.654088  3675A      9.657687  3676A      9.659628  
    3677A      9.667403  3678A      9.670414  3679A      9.673113  
    3680A      9.677401  3681A      9.677662  3682A      9.682591  
    3683A      9.682887  3684A      9.687480  3685A      9.694384  
    3686A      9.695847  3687A      9.698144  3688A      9.703849  
    3689A      9.703961  3690A      9.716195  3691A      9.719841  
    3692A      9.731704  3693A      9.736501  3694A      9.741539  
    3695A      9.745849  3696A      9.747851  3697A      9.762140  
    3698A      9.769521  3699A      9.774669  3700A      9.778049  
    3701A      9.780355  3702A      9.790397  3703A      9.793267  
    3704A      9.796016  3705A      9.797776  3706A      9.803030  
    3707A      9.809781  3708A      9.811813  3709A      9.819463  
    3710A      9.819632  3711A      9.822071  3712A      9.829316  
    3713A      9.837982  3714A      9.840035  3715A      9.843246  
    3716A      9.852138  3717A      9.859053  3718A      9.860880  
    3719A      9.868281  3720A      9.871795  3721A      9.873575  
    3722A      9.897711  3723A      9.899700  3724A      9.916155  
    3725A      9.919702  3726A      9.924654  3727A      9.926554  
    3728A      9.953960  3729A      9.973687  3730A      9.976022  
    3731A      9.988132  3732A      9.996196  3733A     10.018137  
    3734A     10.020676  3735A     10.024063  3736A     10.031032  
    3737A     10.054864  3738A     10.058588  3739A     10.060922  
    3740A     10.062088  3741A     10.063469  3742A     10.079100  
    3743A     10.089286  3744A     10.098904  3745A     10.104937  
    3746A     10.106174  3747A     10.109038  3748A     10.110531  
    3749A     10.114756  3750A     10.117169  3751A     10.127337  
    3752A     10.128297  3753A     10.132630  3754A     10.135880  
    3755A     10.135999  3756A     10.153858  3757A     10.154255  
    3758A     10.156685  3759A     10.162169  3760A     10.162291  
    3761A     10.167088  3762A     10.186556  3763A     10.190219  
    3764A     10.190621  3765A     10.193529  3766A     10.195794  
    3767A     10.202451  3768A     10.209012  3769A     10.211227  
    3770A     10.214105  3771A     10.225388  3772A     10.226422  
    3773A     10.230920  3774A     10.235160  3775A     10.237438  
    3776A     10.241261  3777A     10.242301  3778A     10.245558  
    3779A     10.247031  3780A     10.247887  3781A     10.251703  
    3782A     10.251776  3783A     10.258067  3784A     10.259372  
    3785A     10.284293  3786A     10.288097  3787A     10.289051  
    3788A     10.289576  3789A     10.294223  3790A     10.294625  
    3791A     10.296466  3792A     10.304194  3793A     10.313551  
    3794A     10.318090  3795A     10.321816  3796A     10.331480  
    3797A     10.346468  3798A     10.347267  3799A     10.350569  
    3800A     10.351157  3801A     10.355411  3802A     10.355623  
    3803A     10.369881  3804A     10.375987  3805A     10.379335  
    3806A     10.382476  3807A     10.388462  3808A     10.396551  
    3809A     10.396940  3810A     10.401305  3811A     10.406381  
    3812A     10.412795  3813A     10.420906  3814A     10.422633  
    3815A     10.431663  3816A     10.437255  3817A     10.438003  
    3818A     10.441726  3819A     10.446290  3820A     10.448539  
    3821A     10.449144  3822A     10.449824  3823A     10.453374  
    3824A     10.454401  3825A     10.459814  3826A     10.471128  
    3827A     10.471555  3828A     10.476581  3829A     10.493418  
    3830A     10.497071  3831A     10.497841  3832A     10.499006  
    3833A     10.506143  3834A     10.506367  3835A     10.511751  
    3836A     10.517835  3837A     10.520033  3838A     10.522843  
    3839A     10.530311  3840A     10.532611  3841A     10.537902  
    3842A     10.540707  3843A     10.541583  3844A     10.542220  
    3845A     10.543225  3846A     10.548202  3847A     10.559205  
    3848A     10.564512  3849A     10.571134  3850A     10.571456  
    3851A     10.572874  3852A     10.581883  3853A     10.585104  
    3854A     10.588962  3855A     10.594564  3856A     10.600928  
    3857A     10.603097  3858A     10.605323  3859A     10.608123  
    3860A     10.625199  3861A     10.627410  3862A     10.631152  
    3863A     10.633580  3864A     10.634955  3865A     10.636212  
    3866A     10.639223  3867A     10.642989  3868A     10.648981  
    3869A     10.650122  3870A     10.651051  3871A     10.654095  
    3872A     10.658818  3873A     10.661725  3874A     10.670563  
    3875A     10.670896  3876A     10.675228  3877A     10.684068  
    3878A     10.684160  3879A     10.690962  3880A     10.692694  
    3881A     10.693197  3882A     10.700646  3883A     10.705161  
    3884A     10.705870  3885A     10.713580  3886A     10.718760  
    3887A     10.721535  3888A     10.732689  3889A     10.741991  
    3890A     10.745403  3891A     10.746426  3892A     10.748525  
    3893A     10.757660  3894A     10.759687  3895A     10.765199  
    3896A     10.774538  3897A     10.776427  3898A     10.783515  
    3899A     10.791316  3900A     10.792129  3901A     10.793959  
    3902A     10.795165  3903A     10.800596  3904A     10.808910  
    3905A     10.810441  3906A     10.823027  3907A     10.838220  
    3908A     10.839442  3909A     10.845989  3910A     10.851315  
    3911A     10.859562  3912A     10.861124  3913A     10.863258  
    3914A     10.867783  3915A     10.874925  3916A     10.881926  
    3917A     10.887872  3918A     10.894296  3919A     10.899137  
    3920A     10.902356  3921A     10.904789  3922A     10.906204  
    3923A     10.909300  3924A     10.926389  3925A     10.928155  
    3926A     10.933008  3927A     10.935083  3928A     10.935501  
    3929A     10.945831  3930A     10.947847  3931A     10.955495  
    3932A     10.959865  3933A     10.963129  3934A     10.971867  
    3935A     10.985938  3936A     10.985981  3937A     10.996769  
    3938A     11.018613  3939A     11.019956  3940A     11.021968  
    3941A     11.028188  3942A     11.030243  3943A     11.031139  
    3944A     11.031739  3945A     11.035838  3946A     11.057193  
    3947A     11.058332  3948A     11.078320  3949A     11.085497  
    3950A     11.093477  3951A     11.097654  3952A     11.101693  
    3953A     11.106830  3954A     11.120633  3955A     11.133628  
    3956A     11.139456  3957A     11.151144  3958A     11.161720  
    3959A     11.172432  3960A     11.177274  3961A     11.185643  
    3962A     11.192305  3963A     11.205845  3964A     11.210402  
    3965A     11.217625  3966A     11.222531  3967A     11.229975  
    3968A     11.230756  3969A     11.238896  3970A     11.243992  
    3971A     11.277113  3972A     11.285482  3973A     11.292224  
    3974A     11.299690  3975A     11.308512  3976A     11.312720  
    3977A     11.320276  3978A     11.326761  3979A     11.334899  
    3980A     11.343509  3981A     11.384086  3982A     11.386363  
    3983A     11.389606  3984A     11.398376  3985A     11.399401  
    3986A     11.425460  3987A     11.429611  3988A     11.445560  
    3989A     11.467926  3990A     11.468292  3991A     11.475654  
    3992A     11.483667  3993A     11.488279  3994A     11.516305  
    3995A     11.534577  3996A     11.536189  3997A     11.564344  
    3998A     11.571155  3999A     11.578300  4000A     11.590321  
    4001A     11.590510  4002A     11.592912  4003A     11.599451  
    4004A     11.605208  4005A     11.608579  4006A     11.612140  
    4007A     11.616965  4008A     11.624748  4009A     11.625011  
    4010A     11.625921  4011A     11.628554  4012A     11.629110  
    4013A     11.634443  4014A     11.641833  4015A     11.651412  
    4016A     11.651679  4017A     11.651865  4018A     11.654960  
    4019A     11.660208  4020A     11.660949  4021A     11.662174  
    4022A     11.662382  4023A     11.664822  4024A     11.667942  
    4025A     11.671149  4026A     11.678132  4027A     11.689977  
    4028A     11.698729  4029A     11.700764  4030A     11.706426  
    4031A     11.706996  4032A     11.712184  4033A     11.715503  
    4034A     11.718872  4035A     11.725308  4036A     11.725782  
    4037A     11.734250  4038A     11.739907  4039A     11.746356  
    4040A     11.776186  4041A     11.787573  4042A     11.796176  
    4043A     11.828575  4044A     11.832982  4045A     11.858877  
    4046A     11.868413  4047A     11.871007  4048A     11.885308  
    4049A     11.889171  4050A     11.890891  4051A     11.941498  
    4052A     11.944033  4053A     11.948971  4054A     11.953991  
    4055A     11.962330  4056A     11.970739  4057A     11.973418  
    4058A     11.989814  4059A     11.998554  4060A     11.999071  
    4061A     12.003588  4062A     12.004682  4063A     12.006886  
    4064A     12.007652  4065A     12.009313  4066A     12.013234  
    4067A     12.015879  4068A     12.017522  4069A     12.027987  
    4070A     12.030122  4071A     12.036670  4072A     12.044814  
    4073A     12.054629  4074A     12.054815  4075A     12.056618  
    4076A     12.058094  4077A     12.059626  4078A     12.063286  
    4079A     12.066589  4080A     12.067232  4081A     12.067898  
    4082A     12.075485  4083A     12.078136  4084A     12.081243  
    4085A     12.088188  4086A     12.095443  4087A     12.097326  
    4088A     12.100822  4089A     12.109550  4090A     12.112601  
    4091A     12.115448  4092A     12.122015  4093A     12.130664  
    4094A     12.134870  4095A     12.137229  4096A     12.139276  
    4097A     12.142769  4098A     12.157940  4099A     12.161740  
    4100A     12.170962  4101A     12.177236  4102A     12.183758  
    4103A     12.196583  4104A     12.198921  4105A     12.212077  
    4106A     12.224400  4107A     12.226993  4108A     12.228062  
    4109A     12.239302  4110A     12.259885  4111A     12.265704  
    4112A     12.283038  4113A     12.286706  4114A     12.297552  
    4115A     12.302087  4116A     12.322670  4117A     12.333773  
    4118A     12.336685  4119A     12.343806  4120A     12.355567  
    4121A     12.364578  4122A     12.373529  4123A     12.374345  
    4124A     12.379811  4125A     12.387382  4126A     12.392293  
    4127A     12.392330  4128A     12.403973  4129A     12.410408  
    4130A     12.412059  4131A     12.415034  4132A     12.418169  
    4133A     12.422040  4134A     12.429242  4135A     12.438216  
    4136A     12.441300  4137A     12.442967  4138A     12.449592  
    4139A     12.449862  4140A     12.454882  4141A     12.464973  
    4142A     12.480639  4143A     12.491594  4144A     12.497487  
    4145A     12.508902  4146A     12.517905  4147A     12.524985  
    4148A     12.525631  4149A     12.541888  4150A     12.552989  
    4151A     12.553854  4152A     12.562528  4153A     12.564268  
    4154A     12.567064  4155A     12.575548  4156A     12.600804  
    4157A     12.604620  4158A     12.605425  4159A     12.622253  
    4160A     12.625595  4161A     12.651039  4162A     12.665400  
    4163A     12.695652  4164A     12.698534  4165A     12.701984  
    4166A     12.703121  4167A     12.706409  4168A     12.709580  
    4169A     12.718768  4170A     12.721828  4171A     12.727548  
    4172A     12.728487  4173A     12.736171  4174A     12.739378  
    4175A     12.741861  4176A     12.749504  4177A     12.750988  
    4178A     12.752935  4179A     12.758501  4180A     12.763898  
    4181A     12.768229  4182A     12.771663  4183A     12.774638  
    4184A     12.778512  4185A     12.780577  4186A     12.785416  
    4187A     12.793261  4188A     12.797833  4189A     12.801324  
    4190A     12.810649  4191A     12.812458  4192A     12.816550  
    4193A     12.817579  4194A     12.830847  4195A     12.836162  
    4196A     12.838696  4197A     12.839720  4198A     12.845808  
    4199A     12.852091  4200A     12.855117  4201A     12.857161  
    4202A     12.862529  4203A     12.864952  4204A     12.868176  
    4205A     12.870012  4206A     12.874312  4207A     12.889434  
    4208A     12.895557  4209A     12.907209  4210A     12.909885  
    4211A     12.912681  4212A     12.921416  4213A     12.924296  
    4214A     12.930934  4215A     12.937545  4216A     12.940562  
    4217A     12.945629  4218A     12.951287  4219A     12.974972  
    4220A     13.006483  4221A     13.007779  4222A     13.030565  
    4223A     13.050899  4224A     13.065192  4225A     13.229602  
    4226A     13.229659  4227A     13.281349  4228A     13.300074  
    4229A     13.306758  4230A     13.345833  4231A     13.351420  
    4232A     13.387448  4233A     13.398704  4234A     13.402348  
    4235A     13.431197  4236A     13.435369  4237A     13.446655  
    4238A     13.480130  4239A     13.504256  4240A     13.504702  
    4241A     13.521830  4242A     13.555595  4243A     13.673833  
    4244A     13.704736  4245A     13.704997  4246A     13.765572  
    4247A     13.767175  4248A     13.779840  4249A     13.784101  
    4250A     13.796511  4251A     13.809271  4252A     13.824226  
    4253A     13.841954  4254A     13.861204  4255A     13.864985  
    4256A     13.918674  4257A     13.920735  4258A     13.963931  
    4259A     13.967767  4260A     14.053269  4261A     14.054700  
    4262A     14.077783  4263A     14.124209  4264A     14.128559  
    4265A     14.165693  4266A     14.175522  4267A     14.177435  
    4268A     14.195194  4269A     14.198921  4270A     14.205514  
    4271A     14.218603  4272A     14.219211  4273A     14.249643  
    4274A     14.275631  4275A     14.298693  4276A     14.307596  
    4277A     14.351666  4278A     14.389631  4279A     14.395370  
    4280A     14.403382  4281A     14.413847  4282A     14.421336  
    4283A     14.433263  4284A     14.447280  4285A     14.457506  
    4286A     14.468646  4287A     14.472416  4288A     14.480652  
    4289A     14.515349  4290A     14.541243  4291A     14.541660  
    4292A     14.551339  4293A     14.560911  4294A     14.597001  
    4295A     14.604857  4296A     14.633336  4297A     14.645171  
    4298A     14.685479  4299A     14.694402  4300A     14.707251  
    4301A     14.711344  4302A     14.716185  4303A     14.780164  
    4304A     14.835913  4305A     14.937094  4306A     14.942426  
    4307A     14.956558  4308A     15.035833  4309A     15.064795  
    4310A     15.074367  4311A     16.744974  4312A     16.772637  
    4313A     16.819109  4314A     16.966626  4315A     24.986842  
    4316A     24.986932  4317A     24.992153  4318A     25.114184  
    4319A     25.183792  4320A     25.213790  4321A     25.260189  
    4322A     25.283402  4323A     25.306702  4324A     25.334629  
    4325A     25.362811  4326A     25.407140  4327A     26.034072  
    4328A     26.133550  4329A     26.135179  4330A     26.240483  
    4331A     26.251800  4332A     26.399823  4333A     26.473783  
    4334A     26.486907  4335A     26.540535  4336A     26.665935  
    4337A     26.672374  4338A     26.733423  4339A     26.807896  
    4340A     26.908668  4341A     27.132386  4342A     34.314610  
    4343A     34.388193  4344A     34.551131  4345A     34.595388  
    4346A     34.595743  4347A     34.802102  4348A     34.935921  
    4349A     34.962908  4350A     42.836636  4351A     42.867668  
    4352A     42.936301  4353A     43.078676  4354A     43.096226  
    4355A     43.122324  4356A     43.123204  4357A     43.161843  
    4358A     43.167429  4359A     43.276736  4360A     43.319708  
    4361A     43.395690  4362A     44.473461  4363A     44.497125  
    4364A     44.569706  4365A     44.839403  

    Final Occupation by Irrep:
              A 
    DOCC [   199 ]

  Energy converged.

  @DF-RHF Final Energy: -2687.02074362473559

   => Energetics <=

    Nuclear Repulsion Energy =           6201.5436595934152137
    One-Electron Energy =              -16036.2406550154937577
    Two-Electron Energy =                7147.6762517973429567
    Total Energy =                      -2687.0207436247355872



Properties will be evaluated at   0.000000,   0.000000,   0.000000 Bohr

Properties computed using the SCF density matrix

  Nuclear Dipole Moment: (a.u.)
     X:   -36.4282      Y:   -12.7853      Z:    -6.2450

  Electronic Dipole Moment: (a.u.)
     X:    35.5310      Y:    11.3296      Z:     6.6953

  Dipole Moment: (a.u.)
     X:    -0.8972      Y:    -1.4557      Z:     0.4504     Total:     1.7683

  Dipole Moment: (Debye)
     X:    -2.2805      Y:    -3.6999      Z:     1.1447     Total:     4.4945


*** tstop() called on hex15 at Tue Mar  6 19:39:11 2018
Module time:
	user time   =   35495.67 seconds =     591.59 minutes
	system time =    1247.41 seconds =      20.79 minutes
	total time  =      27715 seconds =     461.92 minutes
Total time:
	user time   =   35495.67 seconds =     591.59 minutes
	system time =    1247.41 seconds =      20.79 minutes
	total time  =      27715 seconds =     461.92 minutes

*** Psi4 exiting successfully. Buy a developer a beer!
