
    -----------------------------------------------------------------------
          Psi4: An Open-Source Ab Initio Electronic Structure Package
                               Psi4 1.2a1.dev875 

                         Git: Rev {symm_JK} 0ea9481 dirty


    R. M. Parrish, L. A. Burns, D. G. A. Smith, A. C. Simmonett,
    A. E. DePrince III, E. G. Hohenstein, U. Bozkaya, A. Yu. Sokolov,
    R. Di Remigio, R. M. Richard, J. F. Gonthier, A. M. James,
    H. R. McAlexander, A. Kumar, M. Saitow, X. Wang, B. P. Pritchard,
    P. Verma, H. F. Schaefer III, K. Patkowski, R. A. King, E. F. Valeev,
    F. A. Evangelista, J. M. Turney, T. D. Crawford, and C. D. Sherrill,
    J. Chem. Theory Comput. 13(7) pp 3185--3197 (2017).
    (doi: 10.1021/acs.jctc.7b00174)

    -----------------------------------------------------------------------


    Psi4 started on: Wednesday, 07 March 2018 04:58AM

    Process ID:  17727
    PSIDATADIR: /theoryfs2/ds/schieber/Gits/mspsi4/objdir3/stage/usr/local/psi4/share/psi4
    Memory:     500.0 MiB
    Threads:    6
    
  ==> Input File <==

--------------------------------------------------------------------------
memory 60 Gb

molecule protein_30 {
0 1
 N   18.626  30.444   6.627
 C   17.853  29.516   5.837
 C   16.945  30.292   4.886
 O   15.843  30.678   5.237
 C   17.047  28.642   6.811
 C   16.316  27.513   6.146
 O   16.236  27.458   4.905
 O   15.762  26.696   6.882
 N   17.407  27.054  -1.437
 C   17.227  26.751  -0.026
 C   18.555  26.446   0.653
 O   19.003  25.309   0.692
 C   16.258  25.572   0.084
 C   15.759  25.336   1.493
 O   16.399  25.780   2.453
 O   14.731  24.675   1.645
 H   18.180  30.990   7.295
 H   18.510  28.835   5.249
 H   16.336  29.276   7.377
 H   17.778  28.186   7.516
 H   15.845  26.702   7.843
 H   17.860  26.421  -2.023
 H   16.724  27.595   0.500
 H   16.724  24.663  -0.337
 H   15.363  25.845  -0.519
 H   16.737  25.171   3.109
 H   19.646  30.419   6.619
 H   17.295  30.415   3.850
 H   16.947  27.858  -1.864
 H   19.060  27.284   1.155
}

set {
basis aug-cc-pvqz
scf_type df
guess sad
DF_SCF_TYPE DFJK
}

energy('HF')
--------------------------------------------------------------------------

  Memory set to  55.879 GiB by Python driver.

*** tstart() called on hex15
*** at Wed Mar  7 04:58:49 2018

   => Loading Basis Set <=

    Name: AUG-CC-PVQZ
    Role: ORBITAL
    Keyword: BASIS
    atoms 1, 9                   entry N          line   359 file /theoryfs2/ds/schieber/Gits/mspsi4/objdir3/stage/usr/local/psi4/share/psi4/basis/aug-cc-pvqz.gbs 
    atoms 2-3, 5-6, 10-11, 13-14 entry C          line   299 file /theoryfs2/ds/schieber/Gits/mspsi4/objdir3/stage/usr/local/psi4/share/psi4/basis/aug-cc-pvqz.gbs 
    atoms 4, 7-8, 12, 15-16      entry O          line   419 file /theoryfs2/ds/schieber/Gits/mspsi4/objdir3/stage/usr/local/psi4/share/psi4/basis/aug-cc-pvqz.gbs 
    atoms 17-30                  entry H          line    36 file /theoryfs2/ds/schieber/Gits/mspsi4/objdir3/stage/usr/local/psi4/share/psi4/basis/aug-cc-pvqz.gbs 


         ---------------------------------------------------------
                                   SCF
            by Justin Turney, Rob Parrish, Andy Simmonett
                             and Daniel Smith
                              RHF Reference
                        6 Threads,  57220 MiB Core
         ---------------------------------------------------------

  ==> Geometry <==

    Molecular point group: c1
    Full point group: C1

    Geometry (in Angstrom), charge = 0, multiplicity = 1:

       Center              X                  Y                   Z               Mass       
    ------------   -----------------  -----------------  -----------------  -----------------
           N          1.759981620253     3.071942570653     3.302034477710    14.003074004780
           C          0.986981620253     2.143942570653     2.512034477710    12.000000000000
           C          0.078981620253     2.919942570653     1.561034477710    12.000000000000
           O         -1.023018379747     3.305942570653     1.912034477710    15.994914619560
           C          0.180981620253     1.269942570653     3.486034477710    12.000000000000
           C         -0.550018379747     0.140942570653     2.821034477710    12.000000000000
           O         -0.630018379747     0.085942570653     1.580034477710    15.994914619560
           O         -1.104018379747    -0.676057429347     3.557034477710    15.994914619560
           N          0.540981620253    -0.318057429347    -4.761965522290    14.003074004780
           C          0.360981620253    -0.621057429347    -3.350965522290    12.000000000000
           C          1.688981620253    -0.926057429347    -2.671965522290    12.000000000000
           O          2.136981620253    -2.063057429347    -2.632965522290    15.994914619560
           C         -0.608018379747    -1.800057429347    -3.240965522290    12.000000000000
           C         -1.107018379747    -2.036057429347    -1.831965522290    12.000000000000
           O         -0.467018379747    -1.592057429347    -0.871965522290    15.994914619560
           O         -2.135018379747    -2.697057429347    -1.679965522290    15.994914619560
           H          1.313981620253     3.617942570653     3.970034477710     1.007825032070
           H          1.643981620253     1.462942570653     1.924034477710     1.007825032070
           H         -0.530018379747     1.903942570653     4.052034477710     1.007825032070
           H          0.911981620253     0.813942570653     4.191034477710     1.007825032070
           H         -1.021018379747    -0.670057429347     4.518034477710     1.007825032070
           H          0.993981620253    -0.951057429347    -5.347965522290     1.007825032070
           H         -0.142018379747     0.222942570653    -2.824965522290     1.007825032070
           H         -0.142018379747    -2.709057429347    -3.661965522290     1.007825032070
           H         -1.503018379747    -1.527057429347    -3.843965522290     1.007825032070
           H         -0.129018379747    -2.201057429347    -0.215965522290     1.007825032070
           H          2.779981620253     3.046942570653     3.294034477710     1.007825032070
           H          0.428981620253     3.042942570653     0.525034477710     1.007825032070
           H          0.080981620253     0.485942570653    -5.188965522290     1.007825032070
           H          2.193981620253    -0.088057429347    -2.169965522290     1.007825032070

  Running in c1 symmetry.

  Rotational constants: A =      0.02246  B =      0.00667  C =      0.00592 [cm^-1]
  Rotational constants: A =    673.47508  B =    199.82875  C =    177.40117 [MHz]
  Nuclear repulsion = 1089.601628930780862

  Charge       = 0
  Multiplicity = 1
  Electrons    = 124
  Nalpha       = 62
  Nbeta        = 62

  ==> Algorithm <==

  SCF Algorithm Type is DF.
  DIIS enabled.
  MOM disabled.
  Fractional occupation disabled.
  Guess Type is SAD.
  Energy threshold   = 1.00e-06
  Density threshold  = 1.00e-06
  Integral threshold = 0.00e+00

  ==> Primary Basis <==

  Basis Set: AUG-CC-PVQZ
    Blend: AUG-CC-PVQZ
    Number of shells: 516
    Number of basis function: 1924
    Number of Cartesian functions: 2450
    Spherical Harmonics?: true
    Max angular momentum: 4

   => Loading Basis Set <=

    Name: (AUG-CC-PVQZ AUX)
    Role: JKFIT
    Keyword: DF_BASIS_SCF
    atoms 1, 9                   entry N          line   248 file /theoryfs2/ds/schieber/Gits/mspsi4/objdir3/stage/usr/local/psi4/share/psi4/basis/aug-cc-pvqz-jkfit.gbs 
    atoms 2-3, 5-6, 10-11, 13-14 entry C          line   178 file /theoryfs2/ds/schieber/Gits/mspsi4/objdir3/stage/usr/local/psi4/share/psi4/basis/aug-cc-pvqz-jkfit.gbs 
    atoms 4, 7-8, 12, 15-16      entry O          line   318 file /theoryfs2/ds/schieber/Gits/mspsi4/objdir3/stage/usr/local/psi4/share/psi4/basis/aug-cc-pvqz-jkfit.gbs 
    atoms 17-30                  entry H          line    70 file /theoryfs2/ds/schieber/Gits/mspsi4/objdir3/stage/usr/local/psi4/share/psi4/basis/aug-cc-pvqz-jkfit.gbs 

  ==> Pre-Iterations <==

   -------------------------------------------------------
    Irrep   Nso     Nmo     Nalpha   Nbeta   Ndocc  Nsocc
   -------------------------------------------------------
     A       1924    1924       0       0       0       0
   -------------------------------------------------------
    Total    1924    1924      62      62      62       0
   -------------------------------------------------------

  ==> Integral Setup <==

  ==> DFJK: Density-Fitted J/K Matrices <==

    J tasked:                  Yes
    K tasked:                  Yes
    wK tasked:                  No
    OpenMP threads:              6
    Integrals threads:           6
    Memory (MB):             42915
    Algorithm:                Core
    Integral Cache:           NONE
    Schwarz Cutoff:          1E-12
    Fitting Condition:       1E-12

   => Auxiliary Basis Set <=

  Basis Set: (AUG-CC-PVQZ AUX)
    Blend: AUG-CC-PVQZ-JKFIT
    Number of shells: 796
    Number of basis function: 3336
    Number of Cartesian functions: 4582
    Spherical Harmonics?: true
    Max angular momentum: 5

  Minimum eigenvalue in the overlap matrix is 7.2168691300E-07.
  Using Symmetric Orthogonalization.

  SCF Guess: Superposition of Atomic Densities via on-the-fly atomic UHF.

  ==> Iterations <==

                           Total Energy        Delta E     RMS |[F,P]|

   @DF-RHF iter   0:  -875.01174154247940   -8.75012e+02   9.67070e-03 
   @DF-RHF iter   1:  -868.92792258208749    6.08382e+00   1.25865e-03 
   @DF-RHF iter   2:  -869.31405516178324   -3.86133e-01   8.28027e-04 DIIS
   @DF-RHF iter   3:  -869.47081003310814   -1.56755e-01   1.94251e-04 DIIS
   @DF-RHF iter   4:  -869.49064558929877   -1.98356e-02   7.40534e-05 DIIS
   @DF-RHF iter   5:  -869.49397224998074   -3.32666e-03   2.95487e-05 DIIS
   @DF-RHF iter   6:  -869.49487510340202   -9.02853e-04   1.25404e-05 DIIS
   @DF-RHF iter   7:  -869.49506956470827   -1.94461e-04   4.67430e-06 DIIS
   @DF-RHF iter   8:  -869.49509592220772   -2.63575e-05   1.94284e-06 DIIS
   @DF-RHF iter   9:  -869.49510060396415   -4.68176e-06   9.74702e-07 DIIS
   @DF-RHF iter  10:  -869.49510177319792   -1.16923e-06   4.82573e-07 DIIS
   @DF-RHF iter  11:  -869.49510210083895   -3.27641e-07   1.81765e-07 DIIS

  ==> Post-Iterations <==

    Orbital Energies (a.u.)
    -----------------------

    Doubly Occupied:                                                      

       1A    -20.639540     2A    -20.592845     3A    -20.562346  
       4A    -20.557490     5A    -20.532296     6A    -20.508522  
       7A    -15.557992     8A    -15.547894     9A    -11.390022  
      10A    -11.359513    11A    -11.338276    12A    -11.335493  
      13A    -11.295593    14A    -11.284196    15A    -11.261963  
      16A    -11.232546    17A     -1.523250    18A     -1.490050  
      19A     -1.391922    20A     -1.389757    21A     -1.349975  
      22A     -1.326230    23A     -1.213685    24A     -1.198132  
      25A     -1.053471    26A     -1.038072    27A     -0.947913  
      28A     -0.930859    29A     -0.903298    30A     -0.865088  
      31A     -0.801024    32A     -0.789359    33A     -0.746361  
      34A     -0.726437    35A     -0.715576    36A     -0.689751  
      37A     -0.687366    38A     -0.686946    39A     -0.681049  
      40A     -0.658018    41A     -0.657324    42A     -0.647604  
      43A     -0.641119    44A     -0.628923    45A     -0.624387  
      46A     -0.617239    47A     -0.571733    48A     -0.558791  
      49A     -0.554195    50A     -0.530643    51A     -0.524992  
      52A     -0.515734    53A     -0.513671    54A     -0.499600  
      55A     -0.468814    56A     -0.458126    57A     -0.450504  
      58A     -0.443042    59A     -0.441129    60A     -0.429861  
      61A     -0.385519    62A     -0.373337  

    Virtual:                                                              

      63A      0.009419    64A      0.018411    65A      0.024506  
      66A      0.027703    67A      0.034927    68A      0.039408  
      69A      0.043961    70A      0.046377    71A      0.048157  
      72A      0.053204    73A      0.058965    74A      0.061163  
      75A      0.067113    76A      0.071126    77A      0.076397  
      78A      0.079812    79A      0.085389    80A      0.085923  
      81A      0.092989    82A      0.094576    83A      0.098745  
      84A      0.099254    85A      0.100757    86A      0.103377  
      87A      0.106334    88A      0.109234    89A      0.114513  
      90A      0.118237    91A      0.118660    92A      0.121732  
      93A      0.124277    94A      0.124899    95A      0.126594  
      96A      0.128921    97A      0.130927    98A      0.132026  
      99A      0.133002   100A      0.138621   101A      0.139579  
     102A      0.146939   103A      0.149466   104A      0.152968  
     105A      0.159553   106A      0.161014   107A      0.164581  
     108A      0.166775   109A      0.167761   110A      0.168867  
     111A      0.172192   112A      0.175770   113A      0.180715  
     114A      0.182774   115A      0.185230   116A      0.188819  
     117A      0.192433   118A      0.197561   119A      0.201656  
     120A      0.202316   121A      0.209048   122A      0.209958  
     123A      0.216657   124A      0.220847   125A      0.223598  
     126A      0.225180   127A      0.229953   128A      0.236613  
     129A      0.237043   130A      0.238173   131A      0.239298  
     132A      0.242685   133A      0.248061   134A      0.249651  
     135A      0.250365   136A      0.254081   137A      0.257813  
     138A      0.258034   139A      0.261016   140A      0.266015  
     141A      0.266971   142A      0.269442   143A      0.271896  
     144A      0.272620   145A      0.274728   146A      0.277708  
     147A      0.279270   148A      0.281356   149A      0.284713  
     150A      0.287943   151A      0.288744   152A      0.292661  
     153A      0.295992   154A      0.298422   155A      0.304156  
     156A      0.308410   157A      0.310207   158A      0.311089  
     159A      0.313817   160A      0.318579   161A      0.321378  
     162A      0.322223   163A      0.325226   164A      0.329039  
     165A      0.330538   166A      0.332365   167A      0.334784  
     168A      0.339488   169A      0.343384   170A      0.344913  
     171A      0.347889   172A      0.351175   173A      0.351570  
     174A      0.353727   175A      0.358209   176A      0.360043  
     177A      0.361696   178A      0.368770   179A      0.370590  
     180A      0.374769   181A      0.377506   182A      0.383863  
     183A      0.384629   184A      0.386721   185A      0.388110  
     186A      0.392321   187A      0.394445   188A      0.398266  
     189A      0.403069   190A      0.404762   191A      0.407689  
     192A      0.409825   193A      0.413101   194A      0.413976  
     195A      0.419381   196A      0.422127   197A      0.423705  
     198A      0.427462   199A      0.430634   200A      0.432604  
     201A      0.434429   202A      0.439704   203A      0.444380  
     204A      0.446161   205A      0.450222   206A      0.451099  
     207A      0.452106   208A      0.454847   209A      0.456313  
     210A      0.459890   211A      0.463721   212A      0.465182  
     213A      0.468303   214A      0.469674   215A      0.473392  
     216A      0.475484   217A      0.477117   218A      0.478809  
     219A      0.480648   220A      0.483370   221A      0.486366  
     222A      0.489943   223A      0.491946   224A      0.494222  
     225A      0.498318   226A      0.500715   227A      0.503463  
     228A      0.508470   229A      0.509633   230A      0.514001  
     231A      0.515825   232A      0.518918   233A      0.521208  
     234A      0.527418   235A      0.529108   236A      0.530320  
     237A      0.536176   238A      0.542735   239A      0.545083  
     240A      0.551115   241A      0.551550   242A      0.553799  
     243A      0.555489   244A      0.559976   245A      0.562267  
     246A      0.564464   247A      0.565878   248A      0.572803  
     249A      0.575467   250A      0.578441   251A      0.579907  
     252A      0.586318   253A      0.590319   254A      0.592652  
     255A      0.596982   256A      0.599813   257A      0.604091  
     258A      0.608388   259A      0.613005   260A      0.617116  
     261A      0.620885   262A      0.621485   263A      0.627138  
     264A      0.631449   265A      0.631825   266A      0.637713  
     267A      0.639120   268A      0.642858   269A      0.645629  
     270A      0.647938   271A      0.653697   272A      0.657814  
     273A      0.662276   274A      0.665751   275A      0.666368  
     276A      0.670841   277A      0.672286   278A      0.674817  
     279A      0.678055   280A      0.684535   281A      0.685677  
     282A      0.689329   283A      0.690495   284A      0.695354  
     285A      0.700516   286A      0.704707   287A      0.706135  
     288A      0.707300   289A      0.710200   290A      0.713776  
     291A      0.716722   292A      0.722149   293A      0.725131  
     294A      0.727575   295A      0.730433   296A      0.732719  
     297A      0.736824   298A      0.740718   299A      0.743200  
     300A      0.746188   301A      0.748789   302A      0.753497  
     303A      0.757894   304A      0.759249   305A      0.760737  
     306A      0.763233   307A      0.766589   308A      0.767913  
     309A      0.771521   310A      0.774645   311A      0.777618  
     312A      0.778460   313A      0.780195   314A      0.784647  
     315A      0.788035   316A      0.788988   317A      0.792879  
     318A      0.794673   319A      0.798963   320A      0.801786  
     321A      0.808133   322A      0.813994   323A      0.815342  
     324A      0.815702   325A      0.819508   326A      0.822490  
     327A      0.823998   328A      0.827887   329A      0.831296  
     330A      0.833262   331A      0.837268   332A      0.838554  
     333A      0.840844   334A      0.847340   335A      0.851497  
     336A      0.853268   337A      0.857006   338A      0.859860  
     339A      0.862934   340A      0.863890   341A      0.868325  
     342A      0.870834   343A      0.873349   344A      0.873854  
     345A      0.881348   346A      0.882269   347A      0.885767  
     348A      0.888676   349A      0.893126   350A      0.894124  
     351A      0.898116   352A      0.903275   353A      0.904993  
     354A      0.908092   355A      0.911971   356A      0.916205  
     357A      0.917748   358A      0.919696   359A      0.924695  
     360A      0.926479   361A      0.927865   362A      0.932601  
     363A      0.935457   364A      0.937484   365A      0.941452  
     366A      0.946032   367A      0.947142   368A      0.950262  
     369A      0.953418   370A      0.955986   371A      0.959514  
     372A      0.962527   373A      0.965225   374A      0.971508  
     375A      0.974358   376A      0.977905   377A      0.980919  
     378A      0.984430   379A      0.988444   380A      0.990324  
     381A      0.994148   382A      0.999316   383A      1.004109  
     384A      1.005707   385A      1.011346   386A      1.015163  
     387A      1.017323   388A      1.019631   389A      1.020992  
     390A      1.023494   391A      1.026379   392A      1.033152  
     393A      1.034634   394A      1.037698   395A      1.039709  
     396A      1.043662   397A      1.049635   398A      1.051918  
     399A      1.056284   400A      1.059034   401A      1.064946  
     402A      1.066773   403A      1.069796   404A      1.071861  
     405A      1.078237   406A      1.081794   407A      1.086297  
     408A      1.088578   409A      1.092407   410A      1.096386  
     411A      1.098962   412A      1.099727   413A      1.104006  
     414A      1.108954   415A      1.117527   416A      1.119106  
     417A      1.124522   418A      1.129196   419A      1.131026  
     420A      1.136115   421A      1.137125   422A      1.140815  
     423A      1.150369   424A      1.151540   425A      1.152901  
     426A      1.159895   427A      1.162475   428A      1.164853  
     429A      1.171728   430A      1.173241   431A      1.178857  
     432A      1.180019   433A      1.184280   434A      1.186472  
     435A      1.187975   436A      1.190813   437A      1.195561  
     438A      1.200029   439A      1.209386   440A      1.210312  
     441A      1.213827   442A      1.219885   443A      1.224724  
     444A      1.226997   445A      1.234708   446A      1.235921  
     447A      1.237629   448A      1.243517   449A      1.248119  
     450A      1.249847   451A      1.255512   452A      1.257455  
     453A      1.265460   454A      1.267963   455A      1.271597  
     456A      1.274942   457A      1.277956   458A      1.282298  
     459A      1.285506   460A      1.288550   461A      1.292128  
     462A      1.299339   463A      1.303383   464A      1.305644  
     465A      1.308576   466A      1.312902   467A      1.316343  
     468A      1.320399   469A      1.324360   470A      1.327539  
     471A      1.330175   472A      1.335915   473A      1.339656  
     474A      1.343766   475A      1.350632   476A      1.351437  
     477A      1.356260   478A      1.360094   479A      1.365935  
     480A      1.371781   481A      1.374016   482A      1.377493  
     483A      1.381669   484A      1.388781   485A      1.393733  
     486A      1.396302   487A      1.401138   488A      1.409571  
     489A      1.413286   490A      1.416613   491A      1.418832  
     492A      1.425940   493A      1.428839   494A      1.430736  
     495A      1.435005   496A      1.443610   497A      1.450031  
     498A      1.451951   499A      1.463812   500A      1.467332  
     501A      1.470724   502A      1.475004   503A      1.477272  
     504A      1.487203   505A      1.488938   506A      1.491692  
     507A      1.500290   508A      1.505086   509A      1.506961  
     510A      1.509512   511A      1.523650   512A      1.525426  
     513A      1.532369   514A      1.533941   515A      1.537656  
     516A      1.541858   517A      1.547459   518A      1.550943  
     519A      1.552384   520A      1.556494   521A      1.558156  
     522A      1.562638   523A      1.565441   524A      1.570626  
     525A      1.571745   526A      1.579329   527A      1.581742  
     528A      1.584786   529A      1.587775   530A      1.593185  
     531A      1.597016   532A      1.601292   533A      1.604979  
     534A      1.609134   535A      1.614135   536A      1.619899  
     537A      1.621560   538A      1.625340   539A      1.632129  
     540A      1.632808   541A      1.638630   542A      1.642007  
     543A      1.645400   544A      1.658635   545A      1.660979  
     546A      1.663665   547A      1.671779   548A      1.673027  
     549A      1.677276   550A      1.680780   551A      1.690174  
     552A      1.695545   553A      1.698093   554A      1.700043  
     555A      1.704899   556A      1.708267   557A      1.714930  
     558A      1.719136   559A      1.722989   560A      1.726034  
     561A      1.732883   562A      1.737052   563A      1.741871  
     564A      1.747867   565A      1.753537   566A      1.757354  
     567A      1.759300   568A      1.762907   569A      1.766322  
     570A      1.769782   571A      1.773348   572A      1.775122  
     573A      1.779454   574A      1.783109   575A      1.786022  
     576A      1.790581   577A      1.795781   578A      1.798250  
     579A      1.804926   580A      1.808470   581A      1.811477  
     582A      1.814600   583A      1.818556   584A      1.821558  
     585A      1.825649   586A      1.827280   587A      1.831864  
     588A      1.836556   589A      1.840510   590A      1.842747  
     591A      1.852796   592A      1.854284   593A      1.858187  
     594A      1.861222   595A      1.862711   596A      1.865079  
     597A      1.867493   598A      1.869172   599A      1.873775  
     600A      1.878567   601A      1.882874   602A      1.886878  
     603A      1.891041   604A      1.893489   605A      1.895575  
     606A      1.906562   607A      1.909413   608A      1.911573  
     609A      1.919799   610A      1.922164   611A      1.924013  
     612A      1.925556   613A      1.932392   614A      1.938585  
     615A      1.943706   616A      1.947237   617A      1.952491  
     618A      1.955110   619A      1.958015   620A      1.961809  
     621A      1.965736   622A      1.972935   623A      1.974534  
     624A      1.978742   625A      1.982622   626A      1.990072  
     627A      1.993400   628A      1.997342   629A      1.998638  
     630A      2.001841   631A      2.006280   632A      2.009114  
     633A      2.014445   634A      2.015734   635A      2.020668  
     636A      2.022477   637A      2.028149   638A      2.030389  
     639A      2.035183   640A      2.042133   641A      2.042538  
     642A      2.044891   643A      2.048735   644A      2.055848  
     645A      2.059863   646A      2.061221   647A      2.065856  
     648A      2.070559   649A      2.074103   650A      2.078177  
     651A      2.082215   652A      2.087992   653A      2.095954  
     654A      2.097939   655A      2.101832   656A      2.103214  
     657A      2.105955   658A      2.112647   659A      2.118620  
     660A      2.121773   661A      2.123143   662A      2.128485  
     663A      2.130490   664A      2.132594   665A      2.141336  
     666A      2.141753   667A      2.143961   668A      2.148613  
     669A      2.155177   670A      2.160175   671A      2.165298  
     672A      2.165977   673A      2.171807   674A      2.172491  
     675A      2.175356   676A      2.179776   677A      2.181232  
     678A      2.185804   679A      2.190114   680A      2.191471  
     681A      2.194428   682A      2.196865   683A      2.201987  
     684A      2.210390   685A      2.215801   686A      2.218216  
     687A      2.220388   688A      2.223828   689A      2.224511  
     690A      2.227739   691A      2.233058   692A      2.236612  
     693A      2.239819   694A      2.243906   695A      2.247090  
     696A      2.248938   697A      2.254963   698A      2.256485  
     699A      2.261363   700A      2.265095   701A      2.268508  
     702A      2.273956   703A      2.276085   704A      2.277117  
     705A      2.281248   706A      2.284808   707A      2.290170  
     708A      2.291909   709A      2.295583   710A      2.304732  
     711A      2.306978   712A      2.311222   713A      2.318924  
     714A      2.319801   715A      2.324174   716A      2.327400  
     717A      2.331902   718A      2.336118   719A      2.340615  
     720A      2.342053   721A      2.346639   722A      2.348120  
     723A      2.351771   724A      2.356732   725A      2.362127  
     726A      2.367800   727A      2.369643   728A      2.372107  
     729A      2.374377   730A      2.377635   731A      2.380713  
     732A      2.389827   733A      2.393620   734A      2.396839  
     735A      2.398706   736A      2.404556   737A      2.405564  
     738A      2.408612   739A      2.417831   740A      2.420176  
     741A      2.424730   742A      2.429612   743A      2.435572  
     744A      2.440259   745A      2.445669   746A      2.450960  
     747A      2.452398   748A      2.459706   749A      2.460175  
     750A      2.461858   751A      2.467228   752A      2.472170  
     753A      2.476166   754A      2.476463   755A      2.481945  
     756A      2.488058   757A      2.498282   758A      2.499306  
     759A      2.500954   760A      2.511426   761A      2.512183  
     762A      2.515382   763A      2.517757   764A      2.520673  
     765A      2.532248   766A      2.537491   767A      2.540559  
     768A      2.545033   769A      2.546058   770A      2.553859  
     771A      2.557187   772A      2.561096   773A      2.565058  
     774A      2.572607   775A      2.578761   776A      2.582993  
     777A      2.591269   778A      2.597566   779A      2.602343  
     780A      2.603920   781A      2.608580   782A      2.611623  
     783A      2.619726   784A      2.621045   785A      2.632168  
     786A      2.635227   787A      2.640116   788A      2.641495  
     789A      2.649618   790A      2.650639   791A      2.658554  
     792A      2.666545   793A      2.670586   794A      2.679290  
     795A      2.693080   796A      2.694362   797A      2.705117  
     798A      2.708976   799A      2.712185   800A      2.718738  
     801A      2.721964   802A      2.728117   803A      2.728657  
     804A      2.741351   805A      2.748924   806A      2.753346  
     807A      2.756467   808A      2.765667   809A      2.769969  
     810A      2.776017   811A      2.778614   812A      2.789128  
     813A      2.789289   814A      2.802411   815A      2.806641  
     816A      2.808852   817A      2.814892   818A      2.818876  
     819A      2.823401   820A      2.833087   821A      2.839875  
     822A      2.844025   823A      2.849914   824A      2.853620  
     825A      2.864713   826A      2.867447   827A      2.872813  
     828A      2.877517   829A      2.881027   830A      2.890407  
     831A      2.892810   832A      2.900747   833A      2.902336  
     834A      2.904384   835A      2.916347   836A      2.918756  
     837A      2.922593   838A      2.927212   839A      2.930867  
     840A      2.937882   841A      2.947762   842A      2.950059  
     843A      2.954969   844A      2.959831   845A      2.963787  
     846A      2.972798   847A      2.977104   848A      2.983716  
     849A      2.987780   850A      2.991232   851A      3.001871  
     852A      3.009418   853A      3.012400   854A      3.013553  
     855A      3.024018   856A      3.029299   857A      3.034457  
     858A      3.039640   859A      3.042905   860A      3.048822  
     861A      3.056328   862A      3.058377   863A      3.063528  
     864A      3.065230   865A      3.070584   866A      3.073744  
     867A      3.079151   868A      3.080972   869A      3.089467  
     870A      3.090126   871A      3.095593   872A      3.101052  
     873A      3.105197   874A      3.110199   875A      3.117357  
     876A      3.119195   877A      3.124379   878A      3.127948  
     879A      3.135550   880A      3.137608   881A      3.141415  
     882A      3.148908   883A      3.154114   884A      3.164837  
     885A      3.170946   886A      3.172952   887A      3.180337  
     888A      3.191658   889A      3.197354   890A      3.204924  
     891A      3.212667   892A      3.216330   893A      3.219280  
     894A      3.224274   895A      3.230204   896A      3.235136  
     897A      3.237102   898A      3.244872   899A      3.259339  
     900A      3.263069   901A      3.266357   902A      3.271179  
     903A      3.275524   904A      3.281793   905A      3.289537  
     906A      3.297950   907A      3.303120   908A      3.308594  
     909A      3.311855   910A      3.319163   911A      3.323746  
     912A      3.325893   913A      3.333944   914A      3.338210  
     915A      3.341075   916A      3.344557   917A      3.355944  
     918A      3.362608   919A      3.378763   920A      3.382638  
     921A      3.384203   922A      3.389161   923A      3.393154  
     924A      3.398182   925A      3.400118   926A      3.407306  
     927A      3.419427   928A      3.422086   929A      3.426632  
     930A      3.428310   931A      3.436287   932A      3.439528  
     933A      3.446994   934A      3.453485   935A      3.457141  
     936A      3.469428   937A      3.472690   938A      3.482964  
     939A      3.492660   940A      3.496027   941A      3.505297  
     942A      3.505610   943A      3.513726   944A      3.514327  
     945A      3.522901   946A      3.538338   947A      3.543373  
     948A      3.547267   949A      3.548229   950A      3.560741  
     951A      3.564052   952A      3.577278   953A      3.586392  
     954A      3.590731   955A      3.593108   956A      3.599013  
     957A      3.607085   958A      3.610579   959A      3.616946  
     960A      3.623160   961A      3.634408   962A      3.638729  
     963A      3.654878   964A      3.658654   965A      3.665345  
     966A      3.668761   967A      3.677368   968A      3.683988  
     969A      3.684936   970A      3.690824   971A      3.700091  
     972A      3.706081   973A      3.715247   974A      3.727092  
     975A      3.728987   976A      3.735426   977A      3.741551  
     978A      3.747604   979A      3.750776   980A      3.758532  
     981A      3.765063   982A      3.774436   983A      3.781774  
     984A      3.783799   985A      3.798430   986A      3.800128  
     987A      3.807753   988A      3.817042   989A      3.822727  
     990A      3.827777   991A      3.836129   992A      3.840809  
     993A      3.844267   994A      3.848309   995A      3.862604  
     996A      3.866685   997A      3.874058   998A      3.884285  
     999A      3.888718  1000A      3.900612  1001A      3.907150  
    1002A      3.916073  1003A      3.922356  1004A      3.928504  
    1005A      3.933581  1006A      3.939795  1007A      3.947635  
    1008A      3.953061  1009A      3.954478  1010A      3.958739  
    1011A      3.971293  1012A      3.974927  1013A      3.984548  
    1014A      3.992056  1015A      3.999579  1016A      4.001265  
    1017A      4.009169  1018A      4.012207  1019A      4.016558  
    1020A      4.029826  1021A      4.039138  1022A      4.045529  
    1023A      4.046081  1024A      4.053167  1025A      4.065271  
    1026A      4.067460  1027A      4.078299  1028A      4.080475  
    1029A      4.080603  1030A      4.092034  1031A      4.097065  
    1032A      4.106429  1033A      4.108262  1034A      4.112596  
    1035A      4.116928  1036A      4.118098  1037A      4.123942  
    1038A      4.134486  1039A      4.144705  1040A      4.145751  
    1041A      4.150434  1042A      4.160347  1043A      4.163289  
    1044A      4.171814  1045A      4.180267  1046A      4.191287  
    1047A      4.192144  1048A      4.197960  1049A      4.203809  
    1050A      4.209994  1051A      4.215466  1052A      4.219941  
    1053A      4.223445  1054A      4.228332  1055A      4.233122  
    1056A      4.244637  1057A      4.248451  1058A      4.253424  
    1059A      4.261217  1060A      4.266524  1061A      4.272182  
    1062A      4.289197  1063A      4.291652  1064A      4.296745  
    1065A      4.302884  1066A      4.305550  1067A      4.312754  
    1068A      4.320059  1069A      4.328479  1070A      4.332175  
    1071A      4.338840  1072A      4.344046  1073A      4.351368  
    1074A      4.353219  1075A      4.364917  1076A      4.368554  
    1077A      4.374447  1078A      4.382059  1079A      4.393180  
    1080A      4.402306  1081A      4.404146  1082A      4.409205  
    1083A      4.414448  1084A      4.422848  1085A      4.425168  
    1086A      4.426789  1087A      4.431546  1088A      4.439769  
    1089A      4.446307  1090A      4.452086  1091A      4.454342  
    1092A      4.455380  1093A      4.462648  1094A      4.469832  
    1095A      4.473669  1096A      4.478837  1097A      4.489941  
    1098A      4.498549  1099A      4.504892  1100A      4.506608  
    1101A      4.513556  1102A      4.519019  1103A      4.535377  
    1104A      4.541699  1105A      4.543367  1106A      4.547660  
    1107A      4.550394  1108A      4.558747  1109A      4.562141  
    1110A      4.565032  1111A      4.573608  1112A      4.576429  
    1113A      4.582193  1114A      4.589263  1115A      4.593384  
    1116A      4.599265  1117A      4.605396  1118A      4.607952  
    1119A      4.613065  1120A      4.617611  1121A      4.622873  
    1122A      4.627357  1123A      4.632181  1124A      4.638051  
    1125A      4.647156  1126A      4.653115  1127A      4.654386  
    1128A      4.662224  1129A      4.670572  1130A      4.677812  
    1131A      4.678527  1132A      4.685077  1133A      4.688754  
    1134A      4.695707  1135A      4.698279  1136A      4.701020  
    1137A      4.707447  1138A      4.709207  1139A      4.717817  
    1140A      4.724039  1141A      4.729275  1142A      4.735201  
    1143A      4.737513  1144A      4.746129  1145A      4.750470  
    1146A      4.757524  1147A      4.763307  1148A      4.765946  
    1149A      4.772322  1150A      4.785230  1151A      4.789866  
    1152A      4.793660  1153A      4.800521  1154A      4.804511  
    1155A      4.806045  1156A      4.817507  1157A      4.819793  
    1158A      4.835019  1159A      4.840298  1160A      4.850478  
    1161A      4.855111  1162A      4.856381  1163A      4.870693  
    1164A      4.872461  1165A      4.874605  1166A      4.878288  
    1167A      4.891015  1168A      4.894142  1169A      4.900215  
    1170A      4.918413  1171A      4.921654  1172A      4.932687  
    1173A      4.946924  1174A      4.951065  1175A      4.955647  
    1176A      4.961604  1177A      4.968887  1178A      4.973613  
    1179A      4.991386  1180A      4.997493  1181A      5.003777  
    1182A      5.012620  1183A      5.017528  1184A      5.022549  
    1185A      5.031885  1186A      5.041753  1187A      5.053249  
    1188A      5.060253  1189A      5.067438  1190A      5.074280  
    1191A      5.084813  1192A      5.086894  1193A      5.093984  
    1194A      5.099765  1195A      5.107542  1196A      5.116937  
    1197A      5.121748  1198A      5.128695  1199A      5.141072  
    1200A      5.145303  1201A      5.161520  1202A      5.168531  
    1203A      5.172218  1204A      5.188826  1205A      5.199468  
    1206A      5.202436  1207A      5.206426  1208A      5.215061  
    1209A      5.217737  1210A      5.239299  1211A      5.239889  
    1212A      5.243688  1213A      5.260235  1214A      5.268514  
    1215A      5.280702  1216A      5.282903  1217A      5.293110  
    1218A      5.298972  1219A      5.306094  1220A      5.314474  
    1221A      5.325679  1222A      5.331331  1223A      5.343608  
    1224A      5.360536  1225A      5.370855  1226A      5.380623  
    1227A      5.390731  1228A      5.401607  1229A      5.421672  
    1230A      5.427661  1231A      5.446447  1232A      5.465550  
    1233A      5.477911  1234A      5.488042  1235A      5.490912  
    1236A      5.506806  1237A      5.527835  1238A      5.533326  
    1239A      5.555077  1240A      5.558376  1241A      5.571890  
    1242A      5.576480  1243A      5.582403  1244A      5.597279  
    1245A      5.602405  1246A      5.616446  1247A      5.617750  
    1248A      5.629165  1249A      5.641519  1250A      5.662236  
    1251A      5.666643  1252A      5.676491  1253A      5.698019  
    1254A      5.702772  1255A      5.714864  1256A      5.724769  
    1257A      5.736377  1258A      5.742859  1259A      5.754431  
    1260A      5.770235  1261A      5.784486  1262A      5.803698  
    1263A      5.809279  1264A      5.832991  1265A      5.834838  
    1266A      5.838125  1267A      5.857699  1268A      5.863125  
    1269A      5.889872  1270A      5.894823  1271A      5.928387  
    1272A      5.943762  1273A      5.945628  1274A      5.952487  
    1275A      5.954287  1276A      5.987010  1277A      5.988133  
    1278A      6.001992  1279A      6.007849  1280A      6.026117  
    1281A      6.037265  1282A      6.059294  1283A      6.066227  
    1284A      6.085798  1285A      6.094647  1286A      6.110409  
    1287A      6.158076  1288A      6.184419  1289A      6.216519  
    1290A      6.233432  1291A      6.281904  1292A      6.292099  
    1293A      6.305592  1294A      6.306878  1295A      6.320510  
    1296A      6.322010  1297A      6.332492  1298A      6.345276  
    1299A      6.350685  1300A      6.356337  1301A      6.374696  
    1302A      6.397520  1303A      6.400539  1304A      6.415599  
    1305A      6.446173  1306A      6.453416  1307A      6.459188  
    1308A      6.488085  1309A      6.499506  1310A      6.519752  
    1311A      6.531602  1312A      6.542174  1313A      6.552626  
    1314A      6.560286  1315A      6.586852  1316A      6.594664  
    1317A      6.604680  1318A      6.607609  1319A      6.621288  
    1320A      6.632229  1321A      6.640491  1322A      6.645545  
    1323A      6.656740  1324A      6.661284  1325A      6.668455  
    1326A      6.680161  1327A      6.684830  1328A      6.703994  
    1329A      6.713406  1330A      6.746562  1331A      6.758517  
    1332A      6.761627  1333A      6.771239  1334A      6.778812  
    1335A      6.797822  1336A      6.802457  1337A      6.815804  
    1338A      6.825465  1339A      6.832502  1340A      6.846096  
    1341A      6.850116  1342A      6.858343  1343A      6.861975  
    1344A      6.875418  1345A      6.890019  1346A      6.900678  
    1347A      6.908781  1348A      6.916286  1349A      6.922143  
    1350A      6.931905  1351A      6.937794  1352A      6.949517  
    1353A      6.956150  1354A      6.962306  1355A      6.970762  
    1356A      6.973790  1357A      6.985145  1358A      6.988511  
    1359A      7.002619  1360A      7.007043  1361A      7.014693  
    1362A      7.024391  1363A      7.025997  1364A      7.038144  
    1365A      7.044160  1366A      7.051428  1367A      7.053350  
    1368A      7.060108  1369A      7.068991  1370A      7.089711  
    1371A      7.092176  1372A      7.100113  1373A      7.102970  
    1374A      7.112435  1375A      7.115126  1376A      7.131556  
    1377A      7.135382  1378A      7.145799  1379A      7.150441  
    1380A      7.153389  1381A      7.158020  1382A      7.163567  
    1383A      7.180090  1384A      7.183838  1385A      7.186391  
    1386A      7.198123  1387A      7.216128  1388A      7.220926  
    1389A      7.224371  1390A      7.235266  1391A      7.240759  
    1392A      7.258792  1393A      7.267068  1394A      7.268691  
    1395A      7.286929  1396A      7.288585  1397A      7.293998  
    1398A      7.302449  1399A      7.310464  1400A      7.320255  
    1401A      7.323537  1402A      7.325761  1403A      7.328777  
    1404A      7.343645  1405A      7.345025  1406A      7.352164  
    1407A      7.367433  1408A      7.369145  1409A      7.374791  
    1410A      7.384757  1411A      7.410994  1412A      7.420108  
    1413A      7.428908  1414A      7.434273  1415A      7.445712  
    1416A      7.468044  1417A      7.482477  1418A      7.493939  
    1419A      7.506945  1420A      7.512824  1421A      7.518983  
    1422A      7.534788  1423A      7.556852  1424A      7.561181  
    1425A      7.567601  1426A      7.572212  1427A      7.583691  
    1428A      7.600671  1429A      7.607050  1430A      7.613589  
    1431A      7.618109  1432A      7.627620  1433A      7.640720  
    1434A      7.654312  1435A      7.666679  1436A      7.678488  
    1437A      7.681313  1438A      7.695493  1439A      7.715310  
    1440A      7.725077  1441A      7.731350  1442A      7.742100  
    1443A      7.751482  1444A      7.761676  1445A      7.775500  
    1446A      7.777154  1447A      7.782910  1448A      7.789048  
    1449A      7.795405  1450A      7.802436  1451A      7.808114  
    1452A      7.822367  1453A      7.830364  1454A      7.842946  
    1455A      7.846430  1456A      7.858782  1457A      7.862881  
    1458A      7.884348  1459A      7.889373  1460A      7.899857  
    1461A      7.900930  1462A      7.919910  1463A      7.924060  
    1464A      7.937959  1465A      7.955623  1466A      7.969997  
    1467A      7.975993  1468A      7.978986  1469A      8.002776  
    1470A      8.008017  1471A      8.017811  1472A      8.020011  
    1473A      8.030899  1474A      8.045635  1475A      8.047371  
    1476A      8.052429  1477A      8.077981  1478A      8.100566  
    1479A      8.117558  1480A      8.127636  1481A      8.134427  
    1482A      8.141644  1483A      8.145024  1484A      8.148556  
    1485A      8.173502  1486A      8.184283  1487A      8.193547  
    1488A      8.194405  1489A      8.212274  1490A      8.216917  
    1491A      8.228291  1492A      8.231422  1493A      8.233698  
    1494A      8.241497  1495A      8.252657  1496A      8.259198  
    1497A      8.275227  1498A      8.283620  1499A      8.293115  
    1500A      8.299424  1501A      8.309433  1502A      8.311168  
    1503A      8.323002  1504A      8.334063  1505A      8.346442  
    1506A      8.354726  1507A      8.364848  1508A      8.377467  
    1509A      8.408212  1510A      8.424167  1511A      8.427833  
    1512A      8.451420  1513A      8.461565  1514A      8.466294  
    1515A      8.468861  1516A      8.475820  1517A      8.496152  
    1518A      8.506465  1519A      8.533043  1520A      8.544381  
    1521A      8.548309  1522A      8.554324  1523A      8.566204  
    1524A      8.580539  1525A      8.581557  1526A      8.593219  
    1527A      8.601923  1528A      8.617556  1529A      8.634195  
    1530A      8.637491  1531A      8.647450  1532A      8.654955  
    1533A      8.660753  1534A      8.677005  1535A      8.685934  
    1536A      8.691420  1537A      8.696705  1538A      8.705143  
    1539A      8.707842  1540A      8.722806  1541A      8.727364  
    1542A      8.737553  1543A      8.748351  1544A      8.754951  
    1545A      8.769526  1546A      8.783148  1547A      8.788340  
    1548A      8.804372  1549A      8.809536  1550A      8.813317  
    1551A      8.818558  1552A      8.827523  1553A      8.833366  
    1554A      8.842391  1555A      8.855871  1556A      8.871467  
    1557A      8.877397  1558A      8.891077  1559A      8.895070  
    1560A      8.902346  1561A      8.907513  1562A      8.928017  
    1563A      8.934204  1564A      8.940395  1565A      8.945349  
    1566A      8.956822  1567A      8.971090  1568A      8.976091  
    1569A      8.977398  1570A      8.996628  1571A      9.002654  
    1572A      9.006497  1573A      9.035574  1574A      9.037723  
    1575A      9.057895  1576A      9.066325  1577A      9.069398  
    1578A      9.079364  1579A      9.085110  1580A      9.110690  
    1581A      9.138017  1582A      9.161484  1583A      9.169513  
    1584A      9.183416  1585A      9.190548  1586A      9.198413  
    1587A      9.202418  1588A      9.224212  1589A      9.231815  
    1590A      9.259490  1591A      9.265013  1592A      9.268327  
    1593A      9.285377  1594A      9.287220  1595A      9.305382  
    1596A      9.330066  1597A      9.343138  1598A      9.356190  
    1599A      9.357066  1600A      9.370721  1601A      9.392675  
    1602A      9.395779  1603A      9.408409  1604A      9.415506  
    1605A      9.422404  1606A      9.428654  1607A      9.438783  
    1608A      9.451633  1609A      9.463274  1610A      9.477614  
    1611A      9.504355  1612A      9.510787  1613A      9.518328  
    1614A      9.529204  1615A      9.548719  1616A      9.549753  
    1617A      9.558802  1618A      9.572427  1619A      9.593487  
    1620A      9.609690  1621A      9.626778  1622A      9.634692  
    1623A      9.654227  1624A      9.664818  1625A      9.684463  
    1626A      9.698181  1627A      9.699721  1628A      9.710560  
    1629A      9.728808  1630A      9.733348  1631A      9.739888  
    1632A      9.756079  1633A      9.766474  1634A      9.770595  
    1635A      9.776989  1636A      9.791363  1637A      9.806835  
    1638A      9.809551  1639A      9.810509  1640A      9.827341  
    1641A      9.831551  1642A      9.841527  1643A      9.852806  
    1644A      9.857812  1645A      9.865370  1646A      9.874228  
    1647A      9.885316  1648A      9.899948  1649A      9.912226  
    1650A      9.918173  1651A      9.924212  1652A      9.936110  
    1653A      9.942440  1654A      9.962145  1655A      9.971954  
    1656A     10.011264  1657A     10.019343  1658A     10.025084  
    1659A     10.030969  1660A     10.089008  1661A     10.114120  
    1662A     10.117422  1663A     10.120869  1664A     10.129583  
    1665A     10.152422  1666A     10.153521  1667A     10.164996  
    1668A     10.166428  1669A     10.169006  1670A     10.185069  
    1671A     10.210184  1672A     10.229955  1673A     10.235121  
    1674A     10.244723  1675A     10.247553  1676A     10.256788  
    1677A     10.265890  1678A     10.269724  1679A     10.275708  
    1680A     10.277675  1681A     10.285695  1682A     10.295165  
    1683A     10.312901  1684A     10.316243  1685A     10.320352  
    1686A     10.342871  1687A     10.357663  1688A     10.360887  
    1689A     10.383409  1690A     10.388850  1691A     10.393379  
    1692A     10.421722  1693A     10.427691  1694A     10.450842  
    1695A     10.457695  1696A     10.478810  1697A     10.525179  
    1698A     10.544991  1699A     10.589200  1700A     10.596115  
    1701A     10.639715  1702A     10.651226  1703A     10.653320  
    1704A     10.714939  1705A     10.722451  1706A     10.731528  
    1707A     10.748133  1708A     10.754239  1709A     10.768645  
    1710A     10.797554  1711A     10.848964  1712A     10.861636  
    1713A     10.862765  1714A     10.880014  1715A     10.887357  
    1716A     10.889982  1717A     10.898316  1718A     10.924964  
    1719A     10.934532  1720A     10.947189  1721A     10.956242  
    1722A     10.967259  1723A     10.982796  1724A     11.004313  
    1725A     11.011883  1726A     11.021889  1727A     11.033533  
    1728A     11.051511  1729A     11.069855  1730A     11.080171  
    1731A     11.092845  1732A     11.101293  1733A     11.114109  
    1734A     11.122464  1735A     11.128068  1736A     11.159048  
    1737A     11.169164  1738A     11.182819  1739A     11.185837  
    1740A     11.197999  1741A     11.206624  1742A     11.218554  
    1743A     11.237682  1744A     11.241019  1745A     11.247070  
    1746A     11.252866  1747A     11.265941  1748A     11.281977  
    1749A     11.292133  1750A     11.294774  1751A     11.336296  
    1752A     11.359220  1753A     11.362681  1754A     11.381703  
    1755A     11.419111  1756A     11.423710  1757A     11.431176  
    1758A     11.436315  1759A     11.450466  1760A     11.469528  
    1761A     11.509093  1762A     11.531167  1763A     11.536778  
    1764A     11.543638  1765A     11.551985  1766A     11.562841  
    1767A     11.600492  1768A     11.611775  1769A     11.623805  
    1770A     11.633157  1771A     11.639207  1772A     11.647649  
    1773A     11.655953  1774A     11.663078  1775A     11.666418  
    1776A     11.684087  1777A     11.717226  1778A     11.738007  
    1779A     11.757366  1780A     11.763116  1781A     11.776007  
    1782A     11.804286  1783A     11.881424  1784A     11.886075  
    1785A     11.911674  1786A     11.915765  1787A     11.924011  
    1788A     11.948078  1789A     11.962933  1790A     11.974896  
    1791A     11.980887  1792A     11.985125  1793A     11.995480  
    1794A     12.013893  1795A     12.038329  1796A     12.074234  
    1797A     12.099642  1798A     12.130509  1799A     12.161261  
    1800A     12.189333  1801A     12.212038  1802A     12.224764  
    1803A     12.230218  1804A     12.234246  1805A     12.248106  
    1806A     12.258862  1807A     12.284572  1808A     12.295596  
    1809A     12.302605  1810A     12.327004  1811A     12.333399  
    1812A     12.340503  1813A     12.346992  1814A     12.367667  
    1815A     12.376700  1816A     12.415407  1817A     12.452574  
    1818A     12.475753  1819A     12.482064  1820A     12.589177  
    1821A     12.595073  1822A     12.597193  1823A     12.597873  
    1824A     12.606589  1825A     12.675578  1826A     12.699531  
    1827A     12.761805  1828A     12.762801  1829A     12.772587  
    1830A     12.813805  1831A     12.828666  1832A     12.854564  
    1833A     12.867455  1834A     12.920638  1835A     12.946092  
    1836A     12.958159  1837A     12.978922  1838A     12.983951  
    1839A     12.992986  1840A     13.015654  1841A     13.037948  
    1842A     13.063571  1843A     13.073147  1844A     13.093157  
    1845A     13.094513  1846A     13.099216  1847A     13.107147  
    1848A     13.124719  1849A     13.133050  1850A     13.158897  
    1851A     13.242822  1852A     13.258606  1853A     13.299970  
    1854A     13.354896  1855A     13.359151  1856A     13.365248  
    1857A     13.390922  1858A     13.405358  1859A     13.410179  
    1860A     13.418134  1861A     13.441199  1862A     13.450127  
    1863A     13.461920  1864A     13.469603  1865A     13.494698  
    1866A     13.509236  1867A     13.519733  1868A     13.528585  
    1869A     13.597504  1870A     13.606958  1871A     13.665042  
    1872A     13.677991  1873A     13.715694  1874A     13.751773  
    1875A     13.811899  1876A     13.828154  1877A     13.877607  
    1878A     14.044403  1879A     14.047424  1880A     14.068041  
    1881A     14.118503  1882A     14.134715  1883A     14.148201  
    1884A     14.224414  1885A     14.339717  1886A     14.376183  
    1887A     14.557550  1888A     14.582703  1889A     14.628803  
    1890A     14.634441  1891A     14.647166  1892A     14.684511  
    1893A     14.756534  1894A     14.884305  1895A     15.051325  
    1896A     15.057779  1897A     15.116741  1898A     15.129263  
    1899A     15.144600  1900A     15.159589  1901A     15.262003  
    1902A     15.330572  1903A     15.458031  1904A     15.511450  
    1905A     15.530682  1906A     15.550564  1907A     17.482525  
    1908A     17.554419  1909A     26.960801  1910A     26.991840  
    1911A     27.142460  1912A     27.268248  1913A     28.032452  
    1914A     28.061045  1915A     28.386212  1916A     28.389030  
    1917A     36.301723  1918A     36.328029  1919A     44.463389  
    1920A     44.566351  1921A     44.606416  1922A     44.664624  
    1923A     46.092920  1924A     46.385559  

    Final Occupation by Irrep:
              A 
    DOCC [    62 ]

  Energy converged.

  @DF-RHF Final Energy:  -869.49510210083895

   => Energetics <=

    Nuclear Repulsion Energy =           1089.6016289307808620
    One-Electron Energy =               -3357.5207641220499681
    Two-Electron Energy =                1398.4240330904301572
    Total Energy =                       -869.4951021008389489



Properties will be evaluated at   0.000000,   0.000000,   0.000000 Bohr

Properties computed using the SCF density matrix

  Nuclear Dipole Moment: (a.u.)
     X:     6.4283      Y:     6.0223      Z:    -0.7176

  Electronic Dipole Moment: (a.u.)
     X:    -4.3616      Y:    -4.8260      Z:     2.5041

  Dipole Moment: (a.u.)
     X:     2.0667      Y:     1.1963      Z:     1.7866     Total:     2.9823

  Dipole Moment: (Debye)
     X:     5.2530      Y:     3.0407      Z:     4.5410     Total:     7.5803


*** tstop() called on hex15 at Wed Mar  7 05:23:42 2018
Module time:
	user time   =    3857.33 seconds =      64.29 minutes
	system time =      12.24 seconds =       0.20 minutes
	total time  =       1493 seconds =      24.88 minutes
Total time:
	user time   =    3857.33 seconds =      64.29 minutes
	system time =      12.24 seconds =       0.20 minutes
	total time  =       1493 seconds =      24.88 minutes

*** Psi4 exiting successfully. Buy a developer a beer!
