
    -----------------------------------------------------------------------
          Psi4: An Open-Source Ab Initio Electronic Structure Package
                               Psi4 1.2a1.dev875 

                         Git: Rev {symm_JK} 0ea9481 dirty


    R. M. Parrish, L. A. Burns, D. G. A. Smith, A. C. Simmonett,
    A. E. DePrince III, E. G. Hohenstein, U. Bozkaya, A. Yu. Sokolov,
    R. Di Remigio, R. M. Richard, J. F. Gonthier, A. M. James,
    H. R. McAlexander, A. Kumar, M. Saitow, X. Wang, B. P. Pritchard,
    P. Verma, H. F. Schaefer III, K. Patkowski, R. A. King, E. F. Valeev,
    F. A. Evangelista, J. M. Turney, T. D. Crawford, and C. D. Sherrill,
    J. Chem. Theory Comput. 13(7) pp 3185--3197 (2017).
    (doi: 10.1021/acs.jctc.7b00174)

    -----------------------------------------------------------------------


    Psi4 started on: Sunday, 04 March 2018 05:16PM

    Process ID:  22866
    PSIDATADIR: /theoryfs2/ds/schieber/Gits/mspsi4/objdir3/stage/usr/local/psi4/share/psi4
    Memory:     500.0 MiB
    Threads:    6
    
  ==> Input File <==

--------------------------------------------------------------------------
memory 60 Gb

molecule protein_81 {
0 1
 N   18.626  30.444   6.627
 C   17.853  29.516   5.837
 C   16.945  30.292   4.886
 O   15.843  30.678   5.237
 C   17.047  28.642   6.811
 C   16.316  27.513   6.146
 O   16.236  27.458   4.905
 O   15.762  26.696   6.882
 N    4.567  24.042   8.795
 C    4.886  22.777   8.145
 C    6.265  22.720   7.521
 O    6.723  23.689   6.900
 N   17.407  27.054  -1.437
 C   17.227  26.751  -0.026
 C   18.555  26.446   0.653
 O   19.003  25.309   0.692
 C   16.258  25.572   0.084
 C   15.759  25.336   1.493
 O   16.399  25.780   2.453
 O   14.731  24.675   1.645
 N   19.106  26.199   3.688
 C   18.957  25.372   4.876
 C   18.845  23.903   4.520
 O   18.660  23.054   5.417
 N   20.536  20.559   2.918
 C   21.779  19.912   2.496
 C   21.693  19.374   1.107
 O   22.642  19.502   0.361
 C   22.169  18.827   3.447
 C   22.272  19.337   4.844
 O   22.714  20.482   5.029
 O   21.836  18.647   5.778
 N   15.750  18.102  -3.440
 C   14.628  17.162  -3.514
 C   13.618  17.726  -4.436
 O   13.169  18.861  -4.263
 C   13.781  17.005  -2.245
 C   13.297  15.592  -2.184
 C   14.518  17.455  -1.007
 H   18.180  30.990   7.295
 H   18.510  28.835   5.249
 H   16.336  29.276   7.377
 H   17.778  28.186   7.516
 H   15.845  26.702   7.843
 H    4.436  24.871   8.195
 H    4.744  21.930   8.802
 H    4.143  22.632   7.335
 H   17.860  26.421  -2.023
 H   16.724  27.595   0.500
 H   16.724  24.663  -0.337
 H   15.363  25.845  -0.519
 H   16.737  25.171   3.109
 H   18.314  26.771   3.377
 H   18.015  25.631   5.391
 H   19.792  25.567   5.577
 H   19.976  20.073   3.597
 H   22.602  20.664   2.537
 H   23.175  18.459   3.144
 H   21.465  17.966   3.392
 H   21.492  17.752   5.634
 H   15.541  19.065  -3.172
 H   15.011  16.180  -3.836
 H   12.886  17.674  -2.203
 H   14.115  14.872  -2.046
 H   12.706  15.323  -3.086
 H   12.624  15.478  -1.307
 H   15.405  16.799  -0.936
 H   13.886  17.316  -0.103
 H   14.813  18.522  -1.068
 H   19.646  30.419   6.619
 H   17.295  30.415   3.850
 H    4.454  24.117   9.806
 H    6.887  21.864   7.822
 H   16.947  27.858  -1.864
 H   19.060  27.284   1.155
 H   20.034  26.347   3.290
 H   18.824  23.654   3.449
 H   20.197  21.395   2.443
 H   20.727  18.956   0.786
 H   16.715  17.829  -3.624
 H   13.269  17.060  -5.239
}

set {
basis aug-cc-pvdz
scf_type df
guess sad
DF_SCF_TYPE SYMM_JK
}

energy('HF')
--------------------------------------------------------------------------

  Memory set to  55.879 GiB by Python driver.

*** tstart() called on hex15
*** at Sun Mar  4 17:16:10 2018

   => Loading Basis Set <=

    Name: AUG-CC-PVDZ
    Role: ORBITAL
    Keyword: BASIS
    atoms 1, 9, 13, 21, 25, 33                                             entry N          line   214 file /theoryfs2/ds/schieber/Gits/mspsi4/objdir3/stage/usr/local/psi4/share/psi4/basis/aug-cc-pvdz.gbs 
    atoms 2-3, 5-6, 10-11, 14-15, 17-18, 22-23, 26-27, 29-30, 34-35, 37-39 entry C          line   178 file /theoryfs2/ds/schieber/Gits/mspsi4/objdir3/stage/usr/local/psi4/share/psi4/basis/aug-cc-pvdz.gbs 
    atoms 4, 7-8, 12, 16, 19-20, 24, 28, 31-32, 36                         entry O          line   250 file /theoryfs2/ds/schieber/Gits/mspsi4/objdir3/stage/usr/local/psi4/share/psi4/basis/aug-cc-pvdz.gbs 
    atoms 40-81                                                            entry H          line    36 file /theoryfs2/ds/schieber/Gits/mspsi4/objdir3/stage/usr/local/psi4/share/psi4/basis/aug-cc-pvdz.gbs 


         ---------------------------------------------------------
                                   SCF
            by Justin Turney, Rob Parrish, Andy Simmonett
                             and Daniel Smith
                              RHF Reference
                        6 Threads,  57220 MiB Core
         ---------------------------------------------------------

  ==> Geometry <==

    Molecular point group: c1
    Full point group: C1

    Geometry (in Angstrom), charge = 0, multiplicity = 1:

       Center              X                  Y                   Z               Mass       
    ------------   -----------------  -----------------  -----------------  -----------------
           N          2.162085654028     7.131922671342     3.830998506539    14.003074004780
           C          1.389085654028     6.203922671342     3.040998506539    12.000000000000
           C          0.481085654028     6.979922671342     2.089998506539    12.000000000000
           O         -0.620914345972     7.365922671342     2.440998506539    15.994914619560
           C          0.583085654028     5.329922671342     4.014998506539    12.000000000000
           C         -0.147914345972     4.200922671342     3.349998506539    12.000000000000
           O         -0.227914345972     4.145922671342     2.108998506539    15.994914619560
           O         -0.701914345972     3.383922671342     4.085998506539    15.994914619560
           N        -11.896914345972     0.729922671342     5.998998506539    14.003074004780
           C        -11.577914345972    -0.535077328658     5.348998506539    12.000000000000
           C        -10.198914345972    -0.592077328658     4.724998506539    12.000000000000
           O         -9.740914345972     0.376922671342     4.103998506539    15.994914619560
           N          0.943085654028     3.741922671342    -4.233001493461    14.003074004780
           C          0.763085654028     3.438922671342    -2.822001493461    12.000000000000
           C          2.091085654028     3.133922671342    -2.143001493461    12.000000000000
           O          2.539085654028     1.996922671342    -2.104001493461    15.994914619560
           C         -0.205914345972     2.259922671342    -2.712001493461    12.000000000000
           C         -0.704914345972     2.023922671342    -1.303001493461    12.000000000000
           O         -0.064914345972     2.467922671342    -0.343001493461    15.994914619560
           O         -1.732914345972     1.362922671342    -1.151001493461    15.994914619560
           N          2.642085654028     2.886922671342     0.891998506539    14.003074004780
           C          2.493085654028     2.059922671342     2.079998506539    12.000000000000
           C          2.381085654028     0.590922671342     1.723998506539    12.000000000000
           O          2.196085654028    -0.258077328658     2.620998506539    15.994914619560
           N          4.072085654028    -2.753077328658     0.121998506539    14.003074004780
           C          5.315085654028    -3.400077328658    -0.300001493461    12.000000000000
           C          5.229085654028    -3.938077328658    -1.689001493461    12.000000000000
           O          6.178085654028    -3.810077328658    -2.435001493461    15.994914619560
           C          5.705085654028    -4.485077328658     0.650998506539    12.000000000000
           C          5.808085654028    -3.975077328658     2.047998506539    12.000000000000
           O          6.250085654028    -2.830077328658     2.232998506539    15.994914619560
           O          5.372085654028    -4.665077328658     2.981998506539    15.994914619560
           N         -0.713914345972    -5.210077328658    -6.236001493461    14.003074004780
           C         -1.835914345972    -6.150077328658    -6.310001493461    12.000000000000
           C         -2.845914345972    -5.586077328658    -7.232001493461    12.000000000000
           O         -3.294914345972    -4.451077328658    -7.059001493461    15.994914619560
           C         -2.682914345972    -6.307077328658    -5.041001493461    12.000000000000
           C         -3.166914345972    -7.720077328658    -4.980001493461    12.000000000000
           C         -1.945914345972    -5.857077328658    -3.803001493461    12.000000000000
           H          1.716085654028     7.677922671342     4.498998506539     1.007825032070
           H          2.046085654028     5.522922671342     2.452998506539     1.007825032070
           H         -0.127914345972     5.963922671342     4.580998506539     1.007825032070
           H          1.314085654028     4.873922671342     4.719998506539     1.007825032070
           H         -0.618914345972     3.389922671342     5.046998506539     1.007825032070
           H        -12.027914345972     1.558922671342     5.398998506539     1.007825032070
           H        -11.719914345972    -1.382077328658     6.005998506539     1.007825032070
           H        -12.320914345972    -0.680077328658     4.538998506539     1.007825032070
           H          1.396085654028     3.108922671342    -4.819001493461     1.007825032070
           H          0.260085654028     4.282922671342    -2.296001493461     1.007825032070
           H          0.260085654028     1.350922671342    -3.133001493461     1.007825032070
           H         -1.100914345972     2.532922671342    -3.315001493461     1.007825032070
           H          0.273085654028     1.858922671342     0.312998506539     1.007825032070
           H          1.850085654028     3.458922671342     0.580998506539     1.007825032070
           H          1.551085654028     2.318922671342     2.594998506539     1.007825032070
           H          3.328085654028     2.254922671342     2.780998506539     1.007825032070
           H          3.512085654028    -3.239077328658     0.800998506539     1.007825032070
           H          6.138085654028    -2.648077328658    -0.259001493461     1.007825032070
           H          6.711085654028    -4.853077328658     0.347998506539     1.007825032070
           H          5.001085654028    -5.346077328658     0.595998506539     1.007825032070
           H          5.028085654028    -5.560077328658     2.837998506539     1.007825032070
           H         -0.922914345972    -4.247077328658    -5.968001493461     1.007825032070
           H         -1.452914345972    -7.132077328658    -6.632001493461     1.007825032070
           H         -3.577914345972    -5.638077328658    -4.999001493461     1.007825032070
           H         -2.348914345972    -8.440077328658    -4.842001493461     1.007825032070
           H         -3.757914345972    -7.989077328658    -5.882001493461     1.007825032070
           H         -3.839914345972    -7.834077328658    -4.103001493461     1.007825032070
           H         -1.058914345972    -6.513077328658    -3.732001493461     1.007825032070
           H         -2.577914345972    -5.996077328658    -2.899001493461     1.007825032070
           H         -1.650914345972    -4.790077328658    -3.864001493461     1.007825032070
           H          3.182085654028     7.106922671342     3.822998506539     1.007825032070
           H          0.831085654028     7.102922671342     1.053998506539     1.007825032070
           H        -12.009914345972     0.804922671342     7.009998506539     1.007825032070
           H         -9.576914345972    -1.448077328658     5.025998506539     1.007825032070
           H          0.483085654028     4.545922671342    -4.660001493461     1.007825032070
           H          2.596085654028     3.971922671342    -1.641001493461     1.007825032070
           H          3.570085654028     3.034922671342     0.493998506539     1.007825032070
           H          2.360085654028     0.341922671342     0.652998506539     1.007825032070
           H          3.733085654028    -1.917077328658    -0.353001493461     1.007825032070
           H          4.263085654028    -4.356077328658    -2.010001493461     1.007825032070
           H          0.251085654028    -5.483077328658    -6.420001493461     1.007825032070
           H         -3.194914345972    -6.252077328658    -8.035001493461     1.007825032070

  Running in c1 symmetry.

  Rotational constants: A =      0.00108  B =      0.00092  C =      0.00065 [cm^-1]
  Rotational constants: A =     32.29472  B =     27.57633  C =     19.58821 [MHz]
  Nuclear repulsion = 3942.786577156039129

  Charge       = 0
  Multiplicity = 1
  Electrons    = 306
  Nalpha       = 153
  Nbeta        = 153

  ==> Algorithm <==

  SCF Algorithm Type is DF.
  DIIS enabled.
  MOM disabled.
  Fractional occupation disabled.
  Guess Type is SAD.
  Energy threshold   = 1.00e-06
  Density threshold  = 1.00e-06
  Integral threshold = 0.00e+00

  ==> Primary Basis <==

  Basis Set: AUG-CC-PVDZ
    Blend: AUG-CC-PVDZ
    Number of shells: 561
    Number of basis function: 1275
    Number of Cartesian functions: 1353
    Spherical Harmonics?: true
    Max angular momentum: 2

   => Loading Basis Set <=

    Name: (AUG-CC-PVDZ AUX)
    Role: JKFIT
    Keyword: DF_BASIS_SCF
    atoms 1, 9, 13, 21, 25, 33                                             entry N          line   212 file /theoryfs2/ds/schieber/Gits/mspsi4/objdir3/stage/usr/local/psi4/share/psi4/basis/aug-cc-pvdz-jkfit.gbs 
    atoms 2-3, 5-6, 10-11, 14-15, 17-18, 22-23, 26-27, 29-30, 34-35, 37-39 entry C          line   154 file /theoryfs2/ds/schieber/Gits/mspsi4/objdir3/stage/usr/local/psi4/share/psi4/basis/aug-cc-pvdz-jkfit.gbs 
    atoms 4, 7-8, 12, 16, 19-20, 24, 28, 31-32, 36                         entry O          line   270 file /theoryfs2/ds/schieber/Gits/mspsi4/objdir3/stage/usr/local/psi4/share/psi4/basis/aug-cc-pvdz-jkfit.gbs 
    atoms 40-81                                                            entry H          line    70 file /theoryfs2/ds/schieber/Gits/mspsi4/objdir3/stage/usr/local/psi4/share/psi4/basis/aug-cc-pvdz-jkfit.gbs 

  ==> Pre-Iterations <==

   -------------------------------------------------------
    Irrep   Nso     Nmo     Nalpha   Nbeta   Ndocc  Nsocc
   -------------------------------------------------------
     A       1275    1275       0       0       0       0
   -------------------------------------------------------
    Total    1275    1275     153     153     153       0
   -------------------------------------------------------

  ==> Integral Setup <==


    ==> DF_Helper <==
      nao           = 1275
      naux          = 4698
      Scwarz cutoff = 1.000000E-12
      mem (doubles) = 5625000000
      nthreads      = 6
      Algorithm     = STORE
      AO_core?      = 1
      MO_core?      = 0
      hold metric   = 0
      metric power  = -5.000000E-01
  Fitting condition = 1.000000E-12
  Mask sparsity (%) = (49.535286)


  Minimum eigenvalue in the overlap matrix is 5.9662185063E-06.
  Using Symmetric Orthogonalization.

  SCF Guess: Superposition of Atomic Densities via on-the-fly atomic UHF.

  ==> Iterations <==

                           Total Energy        Delta E     RMS |[F,P]|

   @DF-RHF iter   0: -2060.27878332469390   -2.06028e+03   2.28912e-02 
   @DF-RHF iter   1: -2043.45043378088030    1.68283e+01   2.87490e-03 
   @DF-RHF iter   2: -2044.32472914752384   -8.74295e-01   2.02801e-03 DIIS
   @DF-RHF iter   3: -2044.75338513789666   -4.28656e-01   4.11841e-04 DIIS
   @DF-RHF iter   4: -2044.79243297931521   -3.90478e-02   1.41103e-04 DIIS
   @DF-RHF iter   5: -2044.79816393988881   -5.73096e-03   6.06284e-05 DIIS
   @DF-RHF iter   6: -2044.79992037899365   -1.75644e-03   3.08993e-05 DIIS
   @DF-RHF iter   7: -2044.80047958445311   -5.59205e-04   1.47397e-05 DIIS
   @DF-RHF iter   8: -2044.80062794320338   -1.48359e-04   6.77923e-06 DIIS
   @DF-RHF iter   9: -2044.80065825386964   -3.03107e-05   2.98951e-06 DIIS
   @DF-RHF iter  10: -2044.80066436611492   -6.11225e-06   1.27566e-06 DIIS
   @DF-RHF iter  11: -2044.80066546559055   -1.09948e-06   4.70145e-07 DIIS
   @DF-RHF iter  12: -2044.80066558557792   -1.19987e-07   2.19004e-07 DIIS

  ==> Post-Iterations <==

    Orbital Energies (a.u.)
    -----------------------

    Doubly Occupied:                                                      

       1A    -20.653843     2A    -20.647040     3A    -20.611600  
       4A    -20.579940     5A    -20.572049     6A    -20.571605  
       7A    -20.570419     8A    -20.567199     9A    -20.557928  
      10A    -20.551545    11A    -20.533807    12A    -20.527170  
      13A    -15.567813    14A    -15.560981    15A    -15.557144  
      16A    -15.553390    17A    -15.553016    18A    -15.545955  
      19A    -11.405986    20A    -11.394084    21A    -11.375426  
      22A    -11.352762    23A    -11.345797    24A    -11.344018  
      25A    -11.339667    26A    -11.336897    27A    -11.333628  
      28A    -11.301213    29A    -11.294987    30A    -11.286860  
      31A    -11.282415    32A    -11.280083    33A    -11.275142  
      34A    -11.272683    35A    -11.269648    36A    -11.243433  
      37A    -11.229658    38A    -11.228969    39A    -11.218064  
      40A     -1.531756    41A     -1.518598    42A     -1.502899  
      43A     -1.402251    44A     -1.399130    45A     -1.396590  
      46A     -1.377900    47A     -1.375350    48A     -1.372938  
      49A     -1.361753    50A     -1.346246    51A     -1.336893  
      52A     -1.216293    53A     -1.204326    54A     -1.197046  
      55A     -1.187132    56A     -1.183075    57A     -1.171508  
      58A     -1.080397    59A     -1.058537    60A     -1.056795  
      61A     -1.044510    62A     -0.968526    63A     -0.965830  
      64A     -0.964563    65A     -0.951224    66A     -0.943259  
      67A     -0.938247    68A     -0.929787    69A     -0.908233  
      70A     -0.894397    71A     -0.876507    72A     -0.810575  
      73A     -0.806828    74A     -0.803520    75A     -0.800843  
      76A     -0.796187    77A     -0.795377    78A     -0.760490  
      79A     -0.747943    80A     -0.735603    81A     -0.731990  
      82A     -0.718541    83A     -0.713643    84A     -0.707992  
      85A     -0.705918    86A     -0.699485    87A     -0.695452  
      88A     -0.692952    89A     -0.688242    90A     -0.685432  
      91A     -0.681693    92A     -0.668195    93A     -0.666645  
      94A     -0.662572    95A     -0.659130    96A     -0.659087  
      97A     -0.653832    98A     -0.649234    99A     -0.648840  
     100A     -0.643947   101A     -0.636844   102A     -0.636465  
     103A     -0.630949   104A     -0.629986   105A     -0.629391  
     106A     -0.626825   107A     -0.623308   108A     -0.622033  
     109A     -0.611619   110A     -0.609409   111A     -0.600608  
     112A     -0.590198   113A     -0.576904   114A     -0.572245  
     115A     -0.568547   116A     -0.566473   117A     -0.562147  
     118A     -0.557838   119A     -0.551225   120A     -0.548806  
     121A     -0.546211   122A     -0.534310   123A     -0.530616  
     124A     -0.529166   125A     -0.525204   126A     -0.520124  
     127A     -0.519439   128A     -0.514832   129A     -0.505160  
     130A     -0.502384   131A     -0.489423   132A     -0.487821  
     133A     -0.484493   134A     -0.474573   135A     -0.473153  
     136A     -0.460920   137A     -0.460003   138A     -0.455039  
     139A     -0.446815   140A     -0.443927   141A     -0.443092  
     142A     -0.442024   143A     -0.441285   144A     -0.438949  
     145A     -0.433500   146A     -0.433042   147A     -0.427556  
     148A     -0.384558   149A     -0.380175   150A     -0.375811  
     151A     -0.375465   152A     -0.367512   153A     -0.357556  

    Virtual:                                                              

     154A      0.019391   155A      0.020188   156A      0.026146  
     157A      0.031164   158A      0.033331   159A      0.034011  
     160A      0.039882   161A      0.041485   162A      0.043438  
     163A      0.045062   164A      0.046938   165A      0.049829  
     166A      0.051485   167A      0.052790   168A      0.054040  
     169A      0.055858   170A      0.056699   171A      0.059219  
     172A      0.062062   173A      0.062594   174A      0.063385  
     175A      0.068207   176A      0.070070   177A      0.072272  
     178A      0.074052   179A      0.077149   180A      0.079017  
     181A      0.079900   182A      0.082665   183A      0.084226  
     184A      0.086106   185A      0.087541   186A      0.089665  
     187A      0.090470   188A      0.091880   189A      0.093880  
     190A      0.094174   191A      0.099699   192A      0.101087  
     193A      0.104178   194A      0.105245   195A      0.107269  
     196A      0.110250   197A      0.111317   198A      0.113364  
     199A      0.116907   200A      0.117201   201A      0.119306  
     202A      0.120735   203A      0.121817   204A      0.122633  
     205A      0.124240   206A      0.126779   207A      0.129777  
     208A      0.130005   209A      0.132182   210A      0.132812  
     211A      0.136680   212A      0.137689   213A      0.138216  
     214A      0.140932   215A      0.145032   216A      0.146867  
     217A      0.147229   218A      0.148156   219A      0.150402  
     220A      0.151230   221A      0.151813   222A      0.152620  
     223A      0.153384   224A      0.155717   225A      0.157054  
     226A      0.158194   227A      0.159294   228A      0.160497  
     229A      0.160740   230A      0.161505   231A      0.162804  
     232A      0.164887   233A      0.165653   234A      0.166799  
     235A      0.166915   236A      0.168097   237A      0.171740  
     238A      0.173090   239A      0.174280   240A      0.175724  
     241A      0.177265   242A      0.179766   243A      0.180823  
     244A      0.182390   245A      0.183790   246A      0.184455  
     247A      0.186829   248A      0.187033   249A      0.188626  
     250A      0.190158   251A      0.191508   252A      0.194034  
     253A      0.195465   254A      0.197059   255A      0.198215  
     256A      0.199664   257A      0.202277   258A      0.203712  
     259A      0.205493   260A      0.207002   261A      0.207467  
     262A      0.208058   263A      0.210734   264A      0.211721  
     265A      0.213002   266A      0.214575   267A      0.217905  
     268A      0.218718   269A      0.220192   270A      0.220844  
     271A      0.223796   272A      0.224024   273A      0.227509  
     274A      0.228589   275A      0.228976   276A      0.231448  
     277A      0.233530   278A      0.235405   279A      0.235557  
     280A      0.237699   281A      0.240686   282A      0.242562  
     283A      0.243797   284A      0.247874   285A      0.248516  
     286A      0.252822   287A      0.253314   288A      0.254983  
     289A      0.257693   290A      0.259716   291A      0.262245  
     292A      0.264343   293A      0.266755   294A      0.267648  
     295A      0.268137   296A      0.273460   297A      0.273961  
     298A      0.277244   299A      0.278797   300A      0.280994  
     301A      0.281823   302A      0.283783   303A      0.286236  
     304A      0.289280   305A      0.290212   306A      0.292444  
     307A      0.294579   308A      0.297208   309A      0.299607  
     310A      0.300785   311A      0.302899   312A      0.304607  
     313A      0.306638   314A      0.308379   315A      0.311275  
     316A      0.313611   317A      0.313854   318A      0.315911  
     319A      0.317430   320A      0.320894   321A      0.321377  
     322A      0.323272   323A      0.324102   324A      0.327465  
     325A      0.328960   326A      0.330669   327A      0.331088  
     328A      0.334376   329A      0.336367   330A      0.338612  
     331A      0.339556   332A      0.341352   333A      0.341996  
     334A      0.343053   335A      0.345352   336A      0.347594  
     337A      0.350473   338A      0.352362   339A      0.355438  
     340A      0.355837   341A      0.356914   342A      0.358277  
     343A      0.359429   344A      0.361312   345A      0.362761  
     346A      0.364327   347A      0.365971   348A      0.366408  
     349A      0.369002   350A      0.369095   351A      0.369632  
     352A      0.370880   353A      0.373111   354A      0.376860  
     355A      0.377614   356A      0.378932   357A      0.380998  
     358A      0.382819   359A      0.384695   360A      0.386405  
     361A      0.388124   362A      0.389203   363A      0.391830  
     364A      0.392436   365A      0.396227   366A      0.397858  
     367A      0.399205   368A      0.400652   369A      0.401982  
     370A      0.403272   371A      0.404961   372A      0.405608  
     373A      0.407165   374A      0.409885   375A      0.412867  
     376A      0.413474   377A      0.415012   378A      0.416856  
     379A      0.417620   380A      0.418113   381A      0.419482  
     382A      0.420870   383A      0.426055   384A      0.428070  
     385A      0.430002   386A      0.430691   387A      0.433197  
     388A      0.433699   389A      0.436183   390A      0.438152  
     391A      0.438877   392A      0.440572   393A      0.441715  
     394A      0.442596   395A      0.445506   396A      0.448546  
     397A      0.448743   398A      0.450467   399A      0.451231  
     400A      0.454125   401A      0.455856   402A      0.457503  
     403A      0.458532   404A      0.460890   405A      0.462410  
     406A      0.463184   407A      0.465844   408A      0.469165  
     409A      0.471244   410A      0.472112   411A      0.474282  
     412A      0.475077   413A      0.475898   414A      0.478975  
     415A      0.479539   416A      0.481409   417A      0.482752  
     418A      0.484486   419A      0.485643   420A      0.486790  
     421A      0.488294   422A      0.491117   423A      0.492193  
     424A      0.494129   425A      0.497701   426A      0.498244  
     427A      0.498750   428A      0.500694   429A      0.501681  
     430A      0.505472   431A      0.506389   432A      0.507017  
     433A      0.507933   434A      0.509340   435A      0.509932  
     436A      0.512454   437A      0.514295   438A      0.516276  
     439A      0.516736   440A      0.521564   441A      0.522664  
     442A      0.527740   443A      0.527789   444A      0.529525  
     445A      0.529881   446A      0.533268   447A      0.536055  
     448A      0.538067   449A      0.539051   450A      0.539214  
     451A      0.540969   452A      0.541895   453A      0.544490  
     454A      0.545447   455A      0.546891   456A      0.547758  
     457A      0.549765   458A      0.552858   459A      0.554007  
     460A      0.555891   461A      0.556438   462A      0.558026  
     463A      0.563094   464A      0.564050   465A      0.568992  
     466A      0.571501   467A      0.572802   468A      0.573338  
     469A      0.575510   470A      0.577529   471A      0.581635  
     472A      0.581930   473A      0.584213   474A      0.587442  
     475A      0.589302   476A      0.590583   477A      0.593103  
     478A      0.595018   479A      0.595965   480A      0.596446  
     481A      0.598913   482A      0.600451   483A      0.603478  
     484A      0.604477   485A      0.607521   486A      0.608041  
     487A      0.613242   488A      0.613377   489A      0.615618  
     490A      0.616983   491A      0.617801   492A      0.619911  
     493A      0.620862   494A      0.623221   495A      0.624481  
     496A      0.627820   497A      0.629294   498A      0.632003  
     499A      0.634171   500A      0.635719   501A      0.637251  
     502A      0.638606   503A      0.641467   504A      0.643892  
     505A      0.646542   506A      0.646982   507A      0.648452  
     508A      0.649158   509A      0.652121   510A      0.654433  
     511A      0.655182   512A      0.657126   513A      0.658221  
     514A      0.659998   515A      0.661600   516A      0.662795  
     517A      0.663866   518A      0.666441   519A      0.667303  
     520A      0.669758   521A      0.670751   522A      0.673461  
     523A      0.675362   524A      0.676314   525A      0.680009  
     526A      0.680516   527A      0.684276   528A      0.688872  
     529A      0.690473   530A      0.692554   531A      0.694402  
     532A      0.699055   533A      0.699769   534A      0.700256  
     535A      0.703994   536A      0.707651   537A      0.708427  
     538A      0.708961   539A      0.710432   540A      0.711158  
     541A      0.714656   542A      0.717575   543A      0.718762  
     544A      0.718940   545A      0.720376   546A      0.722427  
     547A      0.723344   548A      0.723668   549A      0.727758  
     550A      0.730625   551A      0.733470   552A      0.734433  
     553A      0.736781   554A      0.738472   555A      0.741963  
     556A      0.743967   557A      0.745352   558A      0.749956  
     559A      0.750950   560A      0.751849   561A      0.753412  
     562A      0.756011   563A      0.758340   564A      0.760998  
     565A      0.762521   566A      0.763818   567A      0.764589  
     568A      0.769017   569A      0.770904   570A      0.772588  
     571A      0.773837   572A      0.774379   573A      0.777699  
     574A      0.780506   575A      0.783484   576A      0.786600  
     577A      0.787992   578A      0.791101   579A      0.793344  
     580A      0.793786   581A      0.795718   582A      0.797995  
     583A      0.798209   584A      0.801970   585A      0.802678  
     586A      0.805741   587A      0.808230   588A      0.810093  
     589A      0.812044   590A      0.814169   591A      0.817115  
     592A      0.819987   593A      0.820455   594A      0.822923  
     595A      0.826289   596A      0.828315   597A      0.829981  
     598A      0.830196   599A      0.833535   600A      0.838325  
     601A      0.839579   602A      0.842553   603A      0.845085  
     604A      0.847816   605A      0.848284   606A      0.850737  
     607A      0.853675   608A      0.855422   609A      0.855874  
     610A      0.858221   611A      0.862357   612A      0.865130  
     613A      0.867238   614A      0.869594   615A      0.874042  
     616A      0.875175   617A      0.877434   618A      0.879462  
     619A      0.882369   620A      0.882610   621A      0.883633  
     622A      0.888122   623A      0.892847   624A      0.896326  
     625A      0.898376   626A      0.903633   627A      0.904745  
     628A      0.906673   629A      0.907593   630A      0.912829  
     631A      0.913924   632A      0.919014   633A      0.921064  
     634A      0.922753   635A      0.924825   636A      0.925830  
     637A      0.930551   638A      0.931892   639A      0.935643  
     640A      0.936872   641A      0.940289   642A      0.942037  
     643A      0.944421   644A      0.947226   645A      0.951048  
     646A      0.952542   647A      0.955325   648A      0.958239  
     649A      0.962883   650A      0.966621   651A      0.969342  
     652A      0.971029   653A      0.972552   654A      0.973397  
     655A      0.974642   656A      0.975879   657A      0.978922  
     658A      0.983105   659A      0.985111   660A      0.985822  
     661A      0.991139   662A      0.996559   663A      0.996782  
     664A      0.997598   665A      1.000124   666A      1.002479  
     667A      1.004466   668A      1.009022   669A      1.012641  
     670A      1.015218   671A      1.017979   672A      1.020957  
     673A      1.025036   674A      1.027362   675A      1.028384  
     676A      1.031031   677A      1.034467   678A      1.039884  
     679A      1.042696   680A      1.044914   681A      1.047713  
     682A      1.049767   683A      1.058882   684A      1.064144  
     685A      1.065972   686A      1.067893   687A      1.069415  
     688A      1.073161   689A      1.077040   690A      1.078279  
     691A      1.081000   692A      1.085708   693A      1.087880  
     694A      1.090092   695A      1.090733   696A      1.095210  
     697A      1.096596   698A      1.099169   699A      1.100022  
     700A      1.103445   701A      1.107065   702A      1.113856  
     703A      1.117043   704A      1.119627   705A      1.120344  
     706A      1.126044   707A      1.133262   708A      1.134460  
     709A      1.139719   710A      1.145170   711A      1.146235  
     712A      1.147856   713A      1.151374   714A      1.152313  
     715A      1.155185   716A      1.157671   717A      1.164029  
     718A      1.164893   719A      1.166274   720A      1.173924  
     721A      1.177367   722A      1.184019   723A      1.186462  
     724A      1.192254   725A      1.194357   726A      1.197756  
     727A      1.203817   728A      1.209828   729A      1.213653  
     730A      1.220461   731A      1.221020   732A      1.223779  
     733A      1.227432   734A      1.232641   735A      1.238882  
     736A      1.242671   737A      1.249221   738A      1.252708  
     739A      1.254361   740A      1.255368   741A      1.257145  
     742A      1.259132   743A      1.261558   744A      1.266393  
     745A      1.268289   746A      1.273221   747A      1.283141  
     748A      1.285416   749A      1.290281   750A      1.292162  
     751A      1.293167   752A      1.295556   753A      1.304540  
     754A      1.306517   755A      1.308561   756A      1.313072  
     757A      1.314225   758A      1.316528   759A      1.319209  
     760A      1.320785   761A      1.323164   762A      1.331607  
     763A      1.334052   764A      1.336853   765A      1.340516  
     766A      1.342784   767A      1.350571   768A      1.352169  
     769A      1.356129   770A      1.357923   771A      1.362529  
     772A      1.367229   773A      1.373807   774A      1.374031  
     775A      1.375759   776A      1.381939   777A      1.383165  
     778A      1.390634   779A      1.393240   780A      1.396207  
     781A      1.399430   782A      1.409875   783A      1.413145  
     784A      1.415397   785A      1.422962   786A      1.423317  
     787A      1.431522   788A      1.438320   789A      1.438594  
     790A      1.441537   791A      1.447358   792A      1.449167  
     793A      1.451830   794A      1.454979   795A      1.456040  
     796A      1.460992   797A      1.471024   798A      1.471132  
     799A      1.478279   800A      1.482367   801A      1.488231  
     802A      1.492559   803A      1.496830   804A      1.501696  
     805A      1.504322   806A      1.505960   807A      1.507670  
     808A      1.508768   809A      1.514370   810A      1.514971  
     811A      1.522345   812A      1.524977   813A      1.526548  
     814A      1.530301   815A      1.535533   816A      1.542604  
     817A      1.545649   818A      1.548349   819A      1.563120  
     820A      1.571936   821A      1.573057   822A      1.575755  
     823A      1.580789   824A      1.585885   825A      1.591442  
     826A      1.591893   827A      1.592453   828A      1.593455  
     829A      1.608692   830A      1.611398   831A      1.613104  
     832A      1.616615   833A      1.618014   834A      1.624007  
     835A      1.624982   836A      1.632322   837A      1.640078  
     838A      1.645113   839A      1.648957   840A      1.653744  
     841A      1.659589   842A      1.663647   843A      1.672370  
     844A      1.683029   845A      1.684321   846A      1.687282  
     847A      1.688430   848A      1.696272   849A      1.697011  
     850A      1.701189   851A      1.704019   852A      1.707342  
     853A      1.717389   854A      1.723764   855A      1.727521  
     856A      1.730337   857A      1.739302   858A      1.747201  
     859A      1.752725   860A      1.754295   861A      1.762088  
     862A      1.765643   863A      1.766852   864A      1.773183  
     865A      1.777947   866A      1.782879   867A      1.785554  
     868A      1.789800   869A      1.796956   870A      1.801878  
     871A      1.804368   872A      1.806536   873A      1.809842  
     874A      1.822362   875A      1.824749   876A      1.830349  
     877A      1.832782   878A      1.832838   879A      1.833651  
     880A      1.835803   881A      1.840090   882A      1.844598  
     883A      1.862015   884A      1.863169   885A      1.866196  
     886A      1.868109   887A      1.871511   888A      1.874976  
     889A      1.876986   890A      1.881959   891A      1.883305  
     892A      1.889277   893A      1.890925   894A      1.893884  
     895A      1.903049   896A      1.903809   897A      1.912955  
     898A      1.915745   899A      1.918095   900A      1.923179  
     901A      1.928684   902A      1.934914   903A      1.940109  
     904A      1.940501   905A      1.943405   906A      1.949023  
     907A      1.949727   908A      1.953064   909A      1.956397  
     910A      1.960149   911A      1.963485   912A      1.968247  
     913A      1.971396   914A      1.972584   915A      1.976445  
     916A      1.982892   917A      1.983449   918A      1.985148  
     919A      1.992778   920A      1.995152   921A      1.998071  
     922A      2.003886   923A      2.012071   924A      2.016634  
     925A      2.023459   926A      2.027209   927A      2.029556  
     928A      2.033526   929A      2.034158   930A      2.034924  
     931A      2.036657   932A      2.038995   933A      2.043855  
     934A      2.048728   935A      2.058678   936A      2.062734  
     937A      2.066933   938A      2.070057   939A      2.071798  
     940A      2.080366   941A      2.081821   942A      2.084036  
     943A      2.088006   944A      2.091165   945A      2.091310  
     946A      2.097973   947A      2.099607   948A      2.103813  
     949A      2.108538   950A      2.110545   951A      2.115121  
     952A      2.122014   953A      2.122684   954A      2.123254  
     955A      2.126530   956A      2.131226   957A      2.133166  
     958A      2.141235   959A      2.141470   960A      2.141971  
     961A      2.143239   962A      2.149635   963A      2.150071  
     964A      2.157294   965A      2.161372   966A      2.161900  
     967A      2.169539   968A      2.176739   969A      2.179503  
     970A      2.188063   971A      2.192106   972A      2.193498  
     973A      2.197078   974A      2.200734   975A      2.201783  
     976A      2.204377   977A      2.205695   978A      2.212266  
     979A      2.219109   980A      2.223669   981A      2.227757  
     982A      2.232758   983A      2.233577   984A      2.237224  
     985A      2.239243   986A      2.245540   987A      2.251079  
     988A      2.263912   989A      2.265536   990A      2.266802  
     991A      2.270928   992A      2.271882   993A      2.276228  
     994A      2.277796   995A      2.289426   996A      2.290563  
     997A      2.293855   998A      2.295264   999A      2.297396  
    1000A      2.304588  1001A      2.306760  1002A      2.309903  
    1003A      2.314685  1004A      2.314940  1005A      2.318720  
    1006A      2.323824  1007A      2.331982  1008A      2.334965  
    1009A      2.335653  1010A      2.335727  1011A      2.339151  
    1012A      2.343658  1013A      2.348540  1014A      2.349886  
    1015A      2.355833  1016A      2.360074  1017A      2.363997  
    1018A      2.367074  1019A      2.368275  1020A      2.369934  
    1021A      2.371834  1022A      2.372374  1023A      2.378100  
    1024A      2.384689  1025A      2.387859  1026A      2.390876  
    1027A      2.397467  1028A      2.403600  1029A      2.407134  
    1030A      2.413515  1031A      2.415427  1032A      2.415839  
    1033A      2.425259  1034A      2.425551  1035A      2.436632  
    1036A      2.437036  1037A      2.438845  1038A      2.444191  
    1039A      2.453312  1040A      2.458064  1041A      2.458819  
    1042A      2.464807  1043A      2.471404  1044A      2.471734  
    1045A      2.477687  1046A      2.482097  1047A      2.488151  
    1048A      2.490001  1049A      2.494661  1050A      2.495987  
    1051A      2.498962  1052A      2.500410  1053A      2.507366  
    1054A      2.510447  1055A      2.517605  1056A      2.521458  
    1057A      2.529051  1058A      2.530597  1059A      2.534418  
    1060A      2.537498  1061A      2.541961  1062A      2.545944  
    1063A      2.547403  1064A      2.548194  1065A      2.552203  
    1066A      2.555224  1067A      2.558924  1068A      2.561922  
    1069A      2.574490  1070A      2.575238  1071A      2.576816  
    1072A      2.578526  1073A      2.586510  1074A      2.592015  
    1075A      2.597498  1076A      2.599991  1077A      2.600982  
    1078A      2.610951  1079A      2.616837  1080A      2.620363  
    1081A      2.622201  1082A      2.625468  1083A      2.626139  
    1084A      2.640865  1085A      2.643235  1086A      2.643617  
    1087A      2.650037  1088A      2.654666  1089A      2.667704  
    1090A      2.680194  1091A      2.685578  1092A      2.693238  
    1093A      2.697228  1094A      2.698436  1095A      2.712174  
    1096A      2.717313  1097A      2.728230  1098A      2.731513  
    1099A      2.738137  1100A      2.738890  1101A      2.739073  
    1102A      2.740802  1103A      2.743495  1104A      2.755998  
    1105A      2.757207  1106A      2.758772  1107A      2.763293  
    1108A      2.768406  1109A      2.771599  1110A      2.777299  
    1111A      2.797163  1112A      2.798331  1113A      2.808183  
    1114A      2.811821  1115A      2.812907  1116A      2.825778  
    1117A      2.831564  1118A      2.832897  1119A      2.846420  
    1120A      2.855233  1121A      2.857387  1122A      2.865185  
    1123A      2.869604  1124A      2.873229  1125A      2.875273  
    1126A      2.879639  1127A      2.879925  1128A      2.882568  
    1129A      2.885261  1130A      2.888006  1131A      2.889668  
    1132A      2.906233  1133A      2.909579  1134A      2.912022  
    1135A      2.915936  1136A      2.917726  1137A      2.925379  
    1138A      2.936732  1139A      2.942091  1140A      2.948576  
    1141A      2.950332  1142A      2.958803  1143A      2.967538  
    1144A      2.969367  1145A      2.982177  1146A      2.991136  
    1147A      2.993177  1148A      2.998637  1149A      3.008335  
    1150A      3.010336  1151A      3.020023  1152A      3.023776  
    1153A      3.027992  1154A      3.035007  1155A      3.036981  
    1156A      3.048824  1157A      3.054115  1158A      3.055820  
    1159A      3.074072  1160A      3.086331  1161A      3.094989  
    1162A      3.107524  1163A      3.116753  1164A      3.119897  
    1165A      3.121389  1166A      3.138173  1167A      3.167249  
    1168A      3.174088  1169A      3.180668  1170A      3.183278  
    1171A      3.188383  1172A      3.190818  1173A      3.197004  
    1174A      3.226985  1175A      3.234051  1176A      3.239780  
    1177A      3.268231  1178A      3.277536  1179A      3.284521  
    1180A      3.310971  1181A      3.331833  1182A      3.336718  
    1183A      3.370802  1184A      3.386609  1185A      3.413689  
    1186A      3.423535  1187A      3.424195  1188A      3.427843  
    1189A      3.441018  1190A      3.443762  1191A      3.463953  
    1192A      3.473068  1193A      3.476780  1194A      3.478096  
    1195A      3.481773  1196A      3.504977  1197A      3.564447  
    1198A      3.578173  1199A      3.581655  1200A      3.599479  
    1201A      3.602857  1202A      3.632148  1203A      3.644605  
    1204A      3.647545  1205A      3.650756  1206A      3.658568  
    1207A      3.663784  1208A      3.693113  1209A      3.698975  
    1210A      3.716302  1211A      3.739208  1212A      3.742875  
    1213A      3.745941  1214A      3.750444  1215A      3.753703  
    1216A      3.755935  1217A      3.762138  1218A      3.763015  
    1219A      3.768729  1220A      3.774478  1221A      3.791106  
    1222A      3.793110  1223A      3.793405  1224A      3.800023  
    1225A      3.815038  1226A      3.817186  1227A      3.820682  
    1228A      3.823873  1229A      3.825717  1230A      3.833435  
    1231A      3.839301  1232A      3.842006  1233A      3.842819  
    1234A      3.847679  1235A      3.859263  1236A      3.870499  
    1237A      3.873383  1238A      3.875854  1239A      3.886808  
    1240A      3.889819  1241A      3.897261  1242A      3.904295  
    1243A      3.931015  1244A      3.936990  1245A      3.943275  
    1246A      3.948336  1247A      3.957095  1248A      3.964393  
    1249A      3.966419  1250A      3.975364  1251A      3.978043  
    1252A      3.981059  1253A      3.992725  1254A      4.013658  
    1255A      4.017647  1256A      4.031484  1257A      4.069985  
    1258A      4.087363  1259A      4.087932  1260A      4.096646  
    1261A      4.109443  1262A      4.128022  1263A      4.137670  
    1264A      4.163083  1265A      4.175504  1266A      4.180239  
    1267A      4.184906  1268A      4.189484  1269A      4.205239  
    1270A      4.241982  1271A      4.287207  1272A      4.359691  
    1273A      4.401979  1274A      4.407925  1275A      4.464786  

    Final Occupation by Irrep:
              A 
    DOCC [   153 ]

  Energy converged.

  @DF-RHF Final Energy: -2044.80066558557792

   => Energetics <=

    Nuclear Repulsion Energy =           3942.7865771560391295
    One-Electron Energy =              -10648.7696227260275919
    Two-Electron Energy =                4661.1823799844105451
    Total Energy =                      -2044.8006655855779172



Properties will be evaluated at   0.000000,   0.000000,   0.000000 Bohr

Properties computed using the SCF density matrix

  Nuclear Dipole Moment: (a.u.)
     X:   -20.8036      Y:   -23.1315      Z:   -12.8132

  Electronic Dipole Moment: (a.u.)
     X:    21.3486      Y:    21.9603      Z:    14.8813

  Dipole Moment: (a.u.)
     X:     0.5450      Y:    -1.1712      Z:     2.0681     Total:     2.4384

  Dipole Moment: (Debye)
     X:     1.3853      Y:    -2.9769      Z:     5.2567     Total:     6.1979


*** tstop() called on hex15 at Sun Mar  4 17:31:08 2018
Module time:
	user time   =    1884.23 seconds =      31.40 minutes
	system time =      17.58 seconds =       0.29 minutes
	total time  =        898 seconds =      14.97 minutes
Total time:
	user time   =    1884.23 seconds =      31.40 minutes
	system time =      17.58 seconds =       0.29 minutes
	total time  =        898 seconds =      14.97 minutes

*** Psi4 exiting successfully. Buy a developer a beer!
