
    -----------------------------------------------------------------------
          Psi4: An Open-Source Ab Initio Electronic Structure Package
                               Psi4 1.2a1.dev875 

                         Git: Rev {symm_JK} 0ea9481 dirty


    R. M. Parrish, L. A. Burns, D. G. A. Smith, A. C. Simmonett,
    A. E. DePrince III, E. G. Hohenstein, U. Bozkaya, A. Yu. Sokolov,
    R. Di Remigio, R. M. Richard, J. F. Gonthier, A. M. James,
    H. R. McAlexander, A. Kumar, M. Saitow, X. Wang, B. P. Pritchard,
    P. Verma, H. F. Schaefer III, K. Patkowski, R. A. King, E. F. Valeev,
    F. A. Evangelista, J. M. Turney, T. D. Crawford, and C. D. Sherrill,
    J. Chem. Theory Comput. 13(7) pp 3185--3197 (2017).
    (doi: 10.1021/acs.jctc.7b00174)

    -----------------------------------------------------------------------


    Psi4 started on: Friday, 02 March 2018 03:23PM

    Process ID:  20740
    PSIDATADIR: /theoryfs2/ds/schieber/Gits/mspsi4/objdir3/stage/usr/local/psi4/share/psi4
    Memory:     500.0 MiB
    Threads:    6
    
  ==> Input File <==

--------------------------------------------------------------------------
memory 60 Gb

molecule protein_81 {
0 1
 N   18.626  30.444   6.627
 C   17.853  29.516   5.837
 C   16.945  30.292   4.886
 O   15.843  30.678   5.237
 C   17.047  28.642   6.811
 C   16.316  27.513   6.146
 O   16.236  27.458   4.905
 O   15.762  26.696   6.882
 N    4.567  24.042   8.795
 C    4.886  22.777   8.145
 C    6.265  22.720   7.521
 O    6.723  23.689   6.900
 N   17.407  27.054  -1.437
 C   17.227  26.751  -0.026
 C   18.555  26.446   0.653
 O   19.003  25.309   0.692
 C   16.258  25.572   0.084
 C   15.759  25.336   1.493
 O   16.399  25.780   2.453
 O   14.731  24.675   1.645
 N   19.106  26.199   3.688
 C   18.957  25.372   4.876
 C   18.845  23.903   4.520
 O   18.660  23.054   5.417
 N   20.536  20.559   2.918
 C   21.779  19.912   2.496
 C   21.693  19.374   1.107
 O   22.642  19.502   0.361
 C   22.169  18.827   3.447
 C   22.272  19.337   4.844
 O   22.714  20.482   5.029
 O   21.836  18.647   5.778
 N   15.750  18.102  -3.440
 C   14.628  17.162  -3.514
 C   13.618  17.726  -4.436
 O   13.169  18.861  -4.263
 C   13.781  17.005  -2.245
 C   13.297  15.592  -2.184
 C   14.518  17.455  -1.007
 H   18.180  30.990   7.295
 H   18.510  28.835   5.249
 H   16.336  29.276   7.377
 H   17.778  28.186   7.516
 H   15.845  26.702   7.843
 H    4.436  24.871   8.195
 H    4.744  21.930   8.802
 H    4.143  22.632   7.335
 H   17.860  26.421  -2.023
 H   16.724  27.595   0.500
 H   16.724  24.663  -0.337
 H   15.363  25.845  -0.519
 H   16.737  25.171   3.109
 H   18.314  26.771   3.377
 H   18.015  25.631   5.391
 H   19.792  25.567   5.577
 H   19.976  20.073   3.597
 H   22.602  20.664   2.537
 H   23.175  18.459   3.144
 H   21.465  17.966   3.392
 H   21.492  17.752   5.634
 H   15.541  19.065  -3.172
 H   15.011  16.180  -3.836
 H   12.886  17.674  -2.203
 H   14.115  14.872  -2.046
 H   12.706  15.323  -3.086
 H   12.624  15.478  -1.307
 H   15.405  16.799  -0.936
 H   13.886  17.316  -0.103
 H   14.813  18.522  -1.068
 H   19.646  30.419   6.619
 H   17.295  30.415   3.850
 H    4.454  24.117   9.806
 H    6.887  21.864   7.822
 H   16.947  27.858  -1.864
 H   19.060  27.284   1.155
 H   20.034  26.347   3.290
 H   18.824  23.654   3.449
 H   20.197  21.395   2.443
 H   20.727  18.956   0.786
 H   16.715  17.829  -3.624
 H   13.269  17.060  -5.239
}

set {
basis cc-pvdz
scf_type df
guess sad
DF_SCF_TYPE DFJK
}

energy('HF')
--------------------------------------------------------------------------

  Memory set to  55.879 GiB by Python driver.

*** tstart() called on hex15
*** at Fri Mar  2 15:23:58 2018

   => Loading Basis Set <=

    Name: CC-PVDZ
    Role: ORBITAL
    Keyword: BASIS
    atoms 1, 9, 13, 21, 25, 33                                             entry N          line   168 file /theoryfs2/ds/schieber/Gits/mspsi4/objdir3/stage/usr/local/psi4/share/psi4/basis/cc-pvdz.gbs 
    atoms 2-3, 5-6, 10-11, 14-15, 17-18, 22-23, 26-27, 29-30, 34-35, 37-39 entry C          line   138 file /theoryfs2/ds/schieber/Gits/mspsi4/objdir3/stage/usr/local/psi4/share/psi4/basis/cc-pvdz.gbs 
    atoms 4, 7-8, 12, 16, 19-20, 24, 28, 31-32, 36                         entry O          line   198 file /theoryfs2/ds/schieber/Gits/mspsi4/objdir3/stage/usr/local/psi4/share/psi4/basis/cc-pvdz.gbs 
    atoms 40-81                                                            entry H          line    22 file /theoryfs2/ds/schieber/Gits/mspsi4/objdir3/stage/usr/local/psi4/share/psi4/basis/cc-pvdz.gbs 


         ---------------------------------------------------------
                                   SCF
            by Justin Turney, Rob Parrish, Andy Simmonett
                             and Daniel Smith
                              RHF Reference
                        6 Threads,  57220 MiB Core
         ---------------------------------------------------------

  ==> Geometry <==

    Molecular point group: c1
    Full point group: C1

    Geometry (in Angstrom), charge = 0, multiplicity = 1:

       Center              X                  Y                   Z               Mass       
    ------------   -----------------  -----------------  -----------------  -----------------
           N          2.162085654028     7.131922671342     3.830998506539    14.003074004780
           C          1.389085654028     6.203922671342     3.040998506539    12.000000000000
           C          0.481085654028     6.979922671342     2.089998506539    12.000000000000
           O         -0.620914345972     7.365922671342     2.440998506539    15.994914619560
           C          0.583085654028     5.329922671342     4.014998506539    12.000000000000
           C         -0.147914345972     4.200922671342     3.349998506539    12.000000000000
           O         -0.227914345972     4.145922671342     2.108998506539    15.994914619560
           O         -0.701914345972     3.383922671342     4.085998506539    15.994914619560
           N        -11.896914345972     0.729922671342     5.998998506539    14.003074004780
           C        -11.577914345972    -0.535077328658     5.348998506539    12.000000000000
           C        -10.198914345972    -0.592077328658     4.724998506539    12.000000000000
           O         -9.740914345972     0.376922671342     4.103998506539    15.994914619560
           N          0.943085654028     3.741922671342    -4.233001493461    14.003074004780
           C          0.763085654028     3.438922671342    -2.822001493461    12.000000000000
           C          2.091085654028     3.133922671342    -2.143001493461    12.000000000000
           O          2.539085654028     1.996922671342    -2.104001493461    15.994914619560
           C         -0.205914345972     2.259922671342    -2.712001493461    12.000000000000
           C         -0.704914345972     2.023922671342    -1.303001493461    12.000000000000
           O         -0.064914345972     2.467922671342    -0.343001493461    15.994914619560
           O         -1.732914345972     1.362922671342    -1.151001493461    15.994914619560
           N          2.642085654028     2.886922671342     0.891998506539    14.003074004780
           C          2.493085654028     2.059922671342     2.079998506539    12.000000000000
           C          2.381085654028     0.590922671342     1.723998506539    12.000000000000
           O          2.196085654028    -0.258077328658     2.620998506539    15.994914619560
           N          4.072085654028    -2.753077328658     0.121998506539    14.003074004780
           C          5.315085654028    -3.400077328658    -0.300001493461    12.000000000000
           C          5.229085654028    -3.938077328658    -1.689001493461    12.000000000000
           O          6.178085654028    -3.810077328658    -2.435001493461    15.994914619560
           C          5.705085654028    -4.485077328658     0.650998506539    12.000000000000
           C          5.808085654028    -3.975077328658     2.047998506539    12.000000000000
           O          6.250085654028    -2.830077328658     2.232998506539    15.994914619560
           O          5.372085654028    -4.665077328658     2.981998506539    15.994914619560
           N         -0.713914345972    -5.210077328658    -6.236001493461    14.003074004780
           C         -1.835914345972    -6.150077328658    -6.310001493461    12.000000000000
           C         -2.845914345972    -5.586077328658    -7.232001493461    12.000000000000
           O         -3.294914345972    -4.451077328658    -7.059001493461    15.994914619560
           C         -2.682914345972    -6.307077328658    -5.041001493461    12.000000000000
           C         -3.166914345972    -7.720077328658    -4.980001493461    12.000000000000
           C         -1.945914345972    -5.857077328658    -3.803001493461    12.000000000000
           H          1.716085654028     7.677922671342     4.498998506539     1.007825032070
           H          2.046085654028     5.522922671342     2.452998506539     1.007825032070
           H         -0.127914345972     5.963922671342     4.580998506539     1.007825032070
           H          1.314085654028     4.873922671342     4.719998506539     1.007825032070
           H         -0.618914345972     3.389922671342     5.046998506539     1.007825032070
           H        -12.027914345972     1.558922671342     5.398998506539     1.007825032070
           H        -11.719914345972    -1.382077328658     6.005998506539     1.007825032070
           H        -12.320914345972    -0.680077328658     4.538998506539     1.007825032070
           H          1.396085654028     3.108922671342    -4.819001493461     1.007825032070
           H          0.260085654028     4.282922671342    -2.296001493461     1.007825032070
           H          0.260085654028     1.350922671342    -3.133001493461     1.007825032070
           H         -1.100914345972     2.532922671342    -3.315001493461     1.007825032070
           H          0.273085654028     1.858922671342     0.312998506539     1.007825032070
           H          1.850085654028     3.458922671342     0.580998506539     1.007825032070
           H          1.551085654028     2.318922671342     2.594998506539     1.007825032070
           H          3.328085654028     2.254922671342     2.780998506539     1.007825032070
           H          3.512085654028    -3.239077328658     0.800998506539     1.007825032070
           H          6.138085654028    -2.648077328658    -0.259001493461     1.007825032070
           H          6.711085654028    -4.853077328658     0.347998506539     1.007825032070
           H          5.001085654028    -5.346077328658     0.595998506539     1.007825032070
           H          5.028085654028    -5.560077328658     2.837998506539     1.007825032070
           H         -0.922914345972    -4.247077328658    -5.968001493461     1.007825032070
           H         -1.452914345972    -7.132077328658    -6.632001493461     1.007825032070
           H         -3.577914345972    -5.638077328658    -4.999001493461     1.007825032070
           H         -2.348914345972    -8.440077328658    -4.842001493461     1.007825032070
           H         -3.757914345972    -7.989077328658    -5.882001493461     1.007825032070
           H         -3.839914345972    -7.834077328658    -4.103001493461     1.007825032070
           H         -1.058914345972    -6.513077328658    -3.732001493461     1.007825032070
           H         -2.577914345972    -5.996077328658    -2.899001493461     1.007825032070
           H         -1.650914345972    -4.790077328658    -3.864001493461     1.007825032070
           H          3.182085654028     7.106922671342     3.822998506539     1.007825032070
           H          0.831085654028     7.102922671342     1.053998506539     1.007825032070
           H        -12.009914345972     0.804922671342     7.009998506539     1.007825032070
           H         -9.576914345972    -1.448077328658     5.025998506539     1.007825032070
           H          0.483085654028     4.545922671342    -4.660001493461     1.007825032070
           H          2.596085654028     3.971922671342    -1.641001493461     1.007825032070
           H          3.570085654028     3.034922671342     0.493998506539     1.007825032070
           H          2.360085654028     0.341922671342     0.652998506539     1.007825032070
           H          3.733085654028    -1.917077328658    -0.353001493461     1.007825032070
           H          4.263085654028    -4.356077328658    -2.010001493461     1.007825032070
           H          0.251085654028    -5.483077328658    -6.420001493461     1.007825032070
           H         -3.194914345972    -6.252077328658    -8.035001493461     1.007825032070

  Running in c1 symmetry.

  Rotational constants: A =      0.00108  B =      0.00092  C =      0.00065 [cm^-1]
  Rotational constants: A =     32.29472  B =     27.57633  C =     19.58821 [MHz]
  Nuclear repulsion = 3942.786577156039129

  Charge       = 0
  Multiplicity = 1
  Electrons    = 306
  Nalpha       = 153
  Nbeta        = 153

  ==> Algorithm <==

  SCF Algorithm Type is DF.
  DIIS enabled.
  MOM disabled.
  Fractional occupation disabled.
  Guess Type is SAD.
  Energy threshold   = 1.00e-06
  Density threshold  = 1.00e-06
  Integral threshold = 0.00e+00

  ==> Primary Basis <==

  Basis Set: CC-PVDZ
    Blend: CC-PVDZ
    Number of shells: 360
    Number of basis function: 756
    Number of Cartesian functions: 795
    Spherical Harmonics?: true
    Max angular momentum: 2

   => Loading Basis Set <=

    Name: (CC-PVDZ AUX)
    Role: JKFIT
    Keyword: DF_BASIS_SCF
    atoms 1, 9, 13, 21, 25, 33                                             entry N          line   171 file /theoryfs2/ds/schieber/Gits/mspsi4/objdir3/stage/usr/local/psi4/share/psi4/basis/cc-pvdz-jkfit.gbs 
    atoms 2-3, 5-6, 10-11, 14-15, 17-18, 22-23, 26-27, 29-30, 34-35, 37-39 entry C          line   121 file /theoryfs2/ds/schieber/Gits/mspsi4/objdir3/stage/usr/local/psi4/share/psi4/basis/cc-pvdz-jkfit.gbs 
    atoms 4, 7-8, 12, 16, 19-20, 24, 28, 31-32, 36                         entry O          line   221 file /theoryfs2/ds/schieber/Gits/mspsi4/objdir3/stage/usr/local/psi4/share/psi4/basis/cc-pvdz-jkfit.gbs 
    atoms 40-81                                                            entry H          line    51 file /theoryfs2/ds/schieber/Gits/mspsi4/objdir3/stage/usr/local/psi4/share/psi4/basis/cc-pvdz-jkfit.gbs 

  ==> Pre-Iterations <==

   -------------------------------------------------------
    Irrep   Nso     Nmo     Nalpha   Nbeta   Ndocc  Nsocc
   -------------------------------------------------------
     A        756     756       0       0       0       0
   -------------------------------------------------------
    Total     756     756     153     153     153       0
   -------------------------------------------------------

  ==> Integral Setup <==

  ==> DFJK: Density-Fitted J/K Matrices <==

    J tasked:                  Yes
    K tasked:                  Yes
    wK tasked:                  No
    OpenMP threads:              6
    Integrals threads:           6
    Memory (MB):             42915
    Algorithm:                Core
    Integral Cache:           NONE
    Schwarz Cutoff:          1E-12
    Fitting Condition:       1E-12

   => Auxiliary Basis Set <=

  Basis Set: (CC-PVDZ AUX)
    Blend: CC-PVDZ-JKFIT
    Number of shells: 1314
    Number of basis function: 3696
    Number of Cartesian functions: 4209
    Spherical Harmonics?: true
    Max angular momentum: 3

  Minimum eigenvalue in the overlap matrix is 1.9605943694E-03.
  Using Symmetric Orthogonalization.

  SCF Guess: Superposition of Atomic Densities via on-the-fly atomic UHF.

  ==> Iterations <==

                           Total Energy        Delta E     RMS |[F,P]|

   @DF-RHF iter   0: -2058.89161689559569   -2.05889e+03   3.76432e-02 
   @DF-RHF iter   1: -2043.14813130989978    1.57435e+01   5.18593e-03 
   @DF-RHF iter   2: -2044.06023197111790   -9.12101e-01   3.76190e-03 DIIS
   @DF-RHF iter   3: -2044.58524205229583   -5.25010e-01   7.54176e-04 DIIS
   @DF-RHF iter   4: -2044.63028712208074   -4.50451e-02   2.45606e-04 DIIS
   @DF-RHF iter   5: -2044.63618917772897   -5.90206e-03   1.07302e-04 DIIS
   @DF-RHF iter   6: -2044.63755056847140   -1.36139e-03   4.27786e-05 DIIS
   @DF-RHF iter   7: -2044.63785149970727   -3.00931e-04   2.08577e-05 DIIS
   @DF-RHF iter   8: -2044.63790846710094   -5.69674e-05   7.53261e-06 DIIS
   @DF-RHF iter   9: -2044.63792082989130   -1.23628e-05   3.25453e-06 DIIS
   @DF-RHF iter  10: -2044.63792360166804   -2.77178e-06   1.73440e-06 DIIS
   @DF-RHF iter  11: -2044.63792447593346   -8.74265e-07   7.81495e-07 DIIS

  ==> Post-Iterations <==

    Orbital Energies (a.u.)
    -----------------------

    Doubly Occupied:                                                      

       1A    -20.640770     2A    -20.632785     3A    -20.599731  
       4A    -20.566890     5A    -20.558265     6A    -20.558141  
       7A    -20.556061     8A    -20.553180     9A    -20.545768  
      10A    -20.537480    11A    -20.517846    12A    -20.510598  
      13A    -15.554105    14A    -15.547576    15A    -15.546469  
      16A    -15.541067    17A    -15.538202    18A    -15.534944  
      19A    -11.397045    20A    -11.384220    21A    -11.364582  
      22A    -11.343867    23A    -11.336638    24A    -11.334115  
      25A    -11.329587    26A    -11.328179    27A    -11.326362  
      28A    -11.292149    29A    -11.285020    30A    -11.279730  
      31A    -11.273496    32A    -11.272070    33A    -11.268268  
      34A    -11.266110    35A    -11.262694    36A    -11.235244  
      37A    -11.227316    38A    -11.223962    39A    -11.216449  
      40A     -1.523564    41A     -1.509276    42A     -1.493761  
      43A     -1.393623    44A     -1.390536    45A     -1.387585  
      46A     -1.370590    47A     -1.366220    48A     -1.363984  
      49A     -1.352070    50A     -1.335738    51A     -1.326145  
      52A     -1.206377    53A     -1.193765    54A     -1.188054  
      55A     -1.178429    56A     -1.175915    57A     -1.160783  
      58A     -1.076166    59A     -1.051790    60A     -1.050083  
      61A     -1.036513    62A     -0.960590    63A     -0.959652  
      64A     -0.958343    65A     -0.943843    66A     -0.936078  
      67A     -0.930301    68A     -0.926900    69A     -0.900320  
      70A     -0.885669    71A     -0.867923    72A     -0.803281  
      73A     -0.802407    74A     -0.795941    75A     -0.794093  
      76A     -0.788101    77A     -0.787754    78A     -0.755944  
      79A     -0.740224    80A     -0.728706    81A     -0.723232  
      82A     -0.711333    83A     -0.705812    84A     -0.702024  
      85A     -0.697589    86A     -0.690588    87A     -0.686487  
      88A     -0.685096    89A     -0.679733    90A     -0.676955  
      91A     -0.673396    92A     -0.660013    93A     -0.658329  
      94A     -0.653612    95A     -0.650615    96A     -0.650526  
      97A     -0.644927    98A     -0.643679    99A     -0.640646  
     100A     -0.634810   101A     -0.629947   102A     -0.628666  
     103A     -0.623527   104A     -0.622492   105A     -0.620684  
     106A     -0.618132   107A     -0.617833   108A     -0.613921  
     109A     -0.604394   110A     -0.600687   111A     -0.596943  
     112A     -0.582258   113A     -0.569982   114A     -0.566608  
     115A     -0.562359   116A     -0.561129   117A     -0.553566  
     118A     -0.550053   119A     -0.543325   120A     -0.543229  
     121A     -0.541753   122A     -0.527448   123A     -0.524629  
     124A     -0.522139   125A     -0.521276   126A     -0.514703  
     127A     -0.512304   128A     -0.505855   129A     -0.496087  
     130A     -0.494907   131A     -0.481436   132A     -0.480317  
     133A     -0.478770   134A     -0.470536   135A     -0.463208  
     136A     -0.452021   137A     -0.450104   138A     -0.445948  
     139A     -0.439337   140A     -0.437946   141A     -0.435325  
     142A     -0.434609   143A     -0.431877   144A     -0.431515  
     145A     -0.425436   146A     -0.424451   147A     -0.422625  
     148A     -0.376856   149A     -0.372762   150A     -0.368539  
     151A     -0.367128   152A     -0.359890   153A     -0.352341  

    Virtual:                                                              

     154A      0.118594   155A      0.130889   156A      0.136274  
     157A      0.138035   158A      0.138111   159A      0.140947  
     160A      0.141778   161A      0.142522   162A      0.154245  
     163A      0.171034   164A      0.175073   165A      0.175235  
     166A      0.180216   167A      0.182629   168A      0.187927  
     169A      0.189262   170A      0.195437   171A      0.199988  
     172A      0.200037   173A      0.204951   174A      0.207794  
     175A      0.210234   176A      0.212887   177A      0.215902  
     178A      0.223954   179A      0.224148   180A      0.225540  
     181A      0.231539   182A      0.234247   183A      0.241355  
     184A      0.245400   185A      0.247624   186A      0.248383  
     187A      0.248819   188A      0.258356   189A      0.260485  
     190A      0.264048   191A      0.270659   192A      0.275243  
     193A      0.276303   194A      0.278951   195A      0.279555  
     196A      0.286902   197A      0.292150   198A      0.294073  
     199A      0.299403   200A      0.303626   201A      0.310160  
     202A      0.326429   203A      0.333888   204A      0.343540  
     205A      0.351490   206A      0.354869   207A      0.368336  
     208A      0.378330   209A      0.381811   210A      0.391114  
     211A      0.395175   212A      0.400810   213A      0.415537  
     214A      0.418193   215A      0.423213   216A      0.427870  
     217A      0.432676   218A      0.433671   219A      0.435171  
     220A      0.440088   221A      0.440386   222A      0.443983  
     223A      0.452022   224A      0.453497   225A      0.458029  
     226A      0.459925   227A      0.461139   228A      0.473320  
     229A      0.485410   230A      0.489464   231A      0.493339  
     232A      0.501872   233A      0.513188   234A      0.520256  
     235A      0.545787   236A      0.567805   237A      0.579887  
     238A      0.598607   239A      0.599371   240A      0.625070  
     241A      0.628809   242A      0.629851   243A      0.636286  
     244A      0.644555   245A      0.645177   246A      0.655925  
     247A      0.667127   248A      0.675327   249A      0.682273  
     250A      0.689013   251A      0.690972   252A      0.693504  
     253A      0.694198   254A      0.698818   255A      0.702923  
     256A      0.706479   257A      0.706527   258A      0.706935  
     259A      0.708597   260A      0.714634   261A      0.715843  
     262A      0.722340   263A      0.724503   264A      0.735521  
     265A      0.739502   266A      0.743835   267A      0.748867  
     268A      0.749395   269A      0.756922   270A      0.758549  
     271A      0.762847   272A      0.765206   273A      0.767901  
     274A      0.768006   275A      0.774073   276A      0.777866  
     277A      0.782959   278A      0.788105   279A      0.791652  
     280A      0.796072   281A      0.797304   282A      0.802511  
     283A      0.803070   284A      0.807722   285A      0.809394  
     286A      0.815486   287A      0.819337   288A      0.820560  
     289A      0.821493   290A      0.826891   291A      0.840809  
     292A      0.842080   293A      0.845339   294A      0.850971  
     295A      0.852936   296A      0.855643   297A      0.855764  
     298A      0.856364   299A      0.859505   300A      0.863579  
     301A      0.864455   302A      0.868727   303A      0.870907  
     304A      0.878256   305A      0.878882   306A      0.880231  
     307A      0.880293   308A      0.882113   309A      0.886069  
     310A      0.886290   311A      0.887582   312A      0.888560  
     313A      0.891025   314A      0.892604   315A      0.892797  
     316A      0.896554   317A      0.898287   318A      0.900836  
     319A      0.904644   320A      0.906124   321A      0.911207  
     322A      0.912070   323A      0.917453   324A      0.922941  
     325A      0.924051   326A      0.927533   327A      0.930936  
     328A      0.937009   329A      0.937442   330A      0.941947  
     331A      0.946717   332A      0.951782   333A      0.954567  
     334A      0.963011   335A      0.966176   336A      0.968748  
     337A      0.975841   338A      0.978972   339A      0.981397  
     340A      0.988552   341A      0.999140   342A      1.007855  
     343A      1.008295   344A      1.018992   345A      1.019944  
     346A      1.026753   347A      1.026784   348A      1.034019  
     349A      1.039188   350A      1.039353   351A      1.047243  
     352A      1.057864   353A      1.059935   354A      1.063030  
     355A      1.078823   356A      1.080763   357A      1.081066  
     358A      1.084016   359A      1.093656   360A      1.095226  
     361A      1.096845   362A      1.102852   363A      1.104510  
     364A      1.106386   365A      1.117806   366A      1.120474  
     367A      1.132686   368A      1.135115   369A      1.139813  
     370A      1.140411   371A      1.143243   372A      1.151695  
     373A      1.161013   374A      1.165734   375A      1.182602  
     376A      1.184583   377A      1.207464   378A      1.214292  
     379A      1.226107   380A      1.227820   381A      1.246070  
     382A      1.257764   383A      1.285101   384A      1.288291  
     385A      1.290594   386A      1.293503   387A      1.297445  
     388A      1.299369   389A      1.300958   390A      1.304690  
     391A      1.316759   392A      1.323378   393A      1.326429  
     394A      1.328133   395A      1.329449   396A      1.338643  
     397A      1.343963   398A      1.346695   399A      1.356305  
     400A      1.359614   401A      1.361580   402A      1.363418  
     403A      1.365029   404A      1.366383   405A      1.373917  
     406A      1.375964   407A      1.377969   408A      1.388081  
     409A      1.390277   410A      1.391065   411A      1.396401  
     412A      1.397495   413A      1.398328   414A      1.399947  
     415A      1.400754   416A      1.405037   417A      1.407531  
     418A      1.412365   419A      1.424273   420A      1.428943  
     421A      1.434481   422A      1.439214   423A      1.440208  
     424A      1.448608   425A      1.454747   426A      1.462323  
     427A      1.464336   428A      1.472243   429A      1.472838  
     430A      1.478078   431A      1.487524   432A      1.489435  
     433A      1.490425   434A      1.502760   435A      1.507207  
     436A      1.510881   437A      1.517575   438A      1.529607  
     439A      1.536175   440A      1.541597   441A      1.546881  
     442A      1.557838   443A      1.565073   444A      1.582429  
     445A      1.590258   446A      1.601545   447A      1.603043  
     448A      1.608092   449A      1.610509   450A      1.613500  
     451A      1.617879   452A      1.621520   453A      1.633022  
     454A      1.639485   455A      1.642721   456A      1.647883  
     457A      1.654732   458A      1.660481   459A      1.664848  
     460A      1.673454   461A      1.676538   462A      1.679558  
     463A      1.684615   464A      1.687564   465A      1.696906  
     466A      1.700070   467A      1.701592   468A      1.706938  
     469A      1.713262   470A      1.719759   471A      1.726694  
     472A      1.737074   473A      1.741888   474A      1.742048  
     475A      1.744539   476A      1.780535   477A      1.787889  
     478A      1.792173   479A      1.793223   480A      1.805507  
     481A      1.815320   482A      1.820214   483A      1.821914  
     484A      1.824026   485A      1.827225   486A      1.831562  
     487A      1.836773   488A      1.844156   489A      1.845328  
     490A      1.855050   491A      1.858463   492A      1.861068  
     493A      1.861764   494A      1.868577   495A      1.872178  
     496A      1.877390   497A      1.882821   498A      1.884861  
     499A      1.892754   500A      1.894199   501A      1.895206  
     502A      1.906223   503A      1.908001   504A      1.912629  
     505A      1.918559   506A      1.922572   507A      1.924138  
     508A      1.927382   509A      1.930098   510A      1.933692  
     511A      1.936432   512A      1.937436   513A      1.939237  
     514A      1.948038   515A      1.950770   516A      1.953934  
     517A      1.956340   518A      1.959029   519A      1.962330  
     520A      1.965159   521A      1.965883   522A      1.966804  
     523A      1.971879   524A      1.974408   525A      1.980666  
     526A      1.982853   527A      1.985126   528A      1.985872  
     529A      1.994348   530A      2.002449   531A      2.007044  
     532A      2.010942   533A      2.015100   534A      2.016988  
     535A      2.017112   536A      2.019708   537A      2.022198  
     538A      2.031316   539A      2.038402   540A      2.042560  
     541A      2.047501   542A      2.048119   543A      2.052184  
     544A      2.055267   545A      2.065022   546A      2.074783  
     547A      2.080417   548A      2.080654   549A      2.083202  
     550A      2.092217   551A      2.097050   552A      2.099566  
     553A      2.102537   554A      2.107320   555A      2.109419  
     556A      2.112057   557A      2.117251   558A      2.117838  
     559A      2.127841   560A      2.131740   561A      2.140114  
     562A      2.142396   563A      2.144782   564A      2.146459  
     565A      2.157537   566A      2.169175   567A      2.174529  
     568A      2.177047   569A      2.185426   570A      2.186870  
     571A      2.186953   572A      2.187278   573A      2.190333  
     574A      2.203271   575A      2.204332   576A      2.207849  
     577A      2.213593   578A      2.228770   579A      2.233263  
     580A      2.237058   581A      2.250721   582A      2.258636  
     583A      2.263107   584A      2.264716   585A      2.276251  
     586A      2.277934   587A      2.290783   588A      2.307861  
     589A      2.308600   590A      2.316959   591A      2.322007  
     592A      2.345274   593A      2.346701   594A      2.348441  
     595A      2.349696   596A      2.358901   597A      2.361778  
     598A      2.363264   599A      2.364955   600A      2.388169  
     601A      2.394420   602A      2.404744   603A      2.428758  
     604A      2.433756   605A      2.445529   606A      2.445714  
     607A      2.450196   608A      2.451105   609A      2.452573  
     610A      2.477251   611A      2.484820   612A      2.488006  
     613A      2.498467   614A      2.501049   615A      2.503088  
     616A      2.507640   617A      2.515307   618A      2.526410  
     619A      2.531920   620A      2.538336   621A      2.544667  
     622A      2.549520   623A      2.558588   624A      2.571725  
     625A      2.585858   626A      2.593326   627A      2.603131  
     628A      2.609871   629A      2.612045   630A      2.612557  
     631A      2.614870   632A      2.616458   633A      2.625152  
     634A      2.638769   635A      2.644491   636A      2.649519  
     637A      2.655953   638A      2.662035   639A      2.673744  
     640A      2.678219   641A      2.694992   642A      2.701391  
     643A      2.711175   644A      2.711904   645A      2.721074  
     646A      2.726338   647A      2.727273   648A      2.728436  
     649A      2.732964   650A      2.742869   651A      2.746358  
     652A      2.749098   653A      2.762442   654A      2.775164  
     655A      2.775418   656A      2.777676   657A      2.790879  
     658A      2.793947   659A      2.796501   660A      2.802799  
     661A      2.815006   662A      2.816218   663A      2.823297  
     664A      2.837710   665A      2.844326   666A      2.855471  
     667A      2.863495   668A      2.865207   669A      2.871221  
     670A      2.884509   671A      2.885602   672A      2.887450  
     673A      2.892122   674A      2.898570   675A      2.904015  
     676A      2.906880   677A      2.914373   678A      2.937219  
     679A      2.948245   680A      2.972356   681A      2.984371  
     682A      3.006004   683A      3.023802   684A      3.045144  
     685A      3.046081   686A      3.050047   687A      3.059665  
     688A      3.062358   689A      3.070383   690A      3.073178  
     691A      3.076157   692A      3.077612   693A      3.081916  
     694A      3.088660   695A      3.095474   696A      3.104274  
     697A      3.118562   698A      3.120587   699A      3.149304  
     700A      3.154698   701A      3.155638   702A      3.163024  
     703A      3.190396   704A      3.201662   705A      3.233250  
     706A      3.266371   707A      3.297583   708A      3.308159  
     709A      3.310186   710A      3.316369   711A      3.337212  
     712A      3.370159   713A      3.400015   714A      3.403362  
     715A      3.410408   716A      3.420581   717A      3.426389  
     718A      3.430944   719A      3.434221   720A      3.441972  
     721A      3.458274   722A      3.466743   723A      3.473349  
     724A      3.473469   725A      3.475013   726A      3.483828  
     727A      3.500557   728A      3.507260   729A      3.516364  
     730A      3.547809   731A      3.552921   732A      3.569884  
     733A      3.660125   734A      3.677663   735A      3.720003  
     736A      3.731052   737A      3.738651   738A      3.746931  
     739A      3.778749   740A      3.782533   741A      3.812431  
     742A      3.820718   743A      3.827462   744A      3.831374  
     745A      3.847261   746A      3.849791   747A      3.852834  
     748A      3.858983   749A      3.861786   750A      3.864811  
     751A      3.885841   752A      3.894850   753A      3.968268  
     754A      4.169307   755A      4.236615   756A      4.246678  

    Final Occupation by Irrep:
              A 
    DOCC [   153 ]

  Energy converged.

  @DF-RHF Final Energy: -2044.63792447593346

   => Energetics <=

    Nuclear Repulsion Energy =           3942.7865771560391295
    One-Electron Energy =              -10650.9950630950424966
    Two-Electron Energy =                4663.5705614630696800
    Total Energy =                      -2044.6379244759336871



Properties will be evaluated at   0.000000,   0.000000,   0.000000 Bohr

Properties computed using the SCF density matrix

  Nuclear Dipole Moment: (a.u.)
     X:   -20.8036      Y:   -23.1315      Z:   -12.8132

  Electronic Dipole Moment: (a.u.)
     X:    21.4342      Y:    22.1230      Z:    14.8422

  Dipole Moment: (a.u.)
     X:     0.6306      Y:    -1.0085      Z:     2.0290     Total:     2.3519

  Dipole Moment: (Debye)
     X:     1.6028      Y:    -2.5633      Z:     5.1571     Total:     5.9779


*** tstop() called on hex15 at Fri Mar  2 15:29:25 2018
Module time:
	user time   =     755.12 seconds =      12.59 minutes
	system time =       6.25 seconds =       0.10 minutes
	total time  =        327 seconds =       5.45 minutes
Total time:
	user time   =     755.12 seconds =      12.59 minutes
	system time =       6.25 seconds =       0.10 minutes
	total time  =        327 seconds =       5.45 minutes

*** Psi4 exiting successfully. Buy a developer a beer!
