
    -----------------------------------------------------------------------
          Psi4: An Open-Source Ab Initio Electronic Structure Package
                               Psi4 1.2a1.dev875 

                         Git: Rev {symm_JK} 0ea9481 dirty


    R. M. Parrish, L. A. Burns, D. G. A. Smith, A. C. Simmonett,
    A. E. DePrince III, E. G. Hohenstein, U. Bozkaya, A. Yu. Sokolov,
    R. Di Remigio, R. M. Richard, J. F. Gonthier, A. M. James,
    H. R. McAlexander, A. Kumar, M. Saitow, X. Wang, B. P. Pritchard,
    P. Verma, H. F. Schaefer III, K. Patkowski, R. A. King, E. F. Valeev,
    F. A. Evangelista, J. M. Turney, T. D. Crawford, and C. D. Sherrill,
    J. Chem. Theory Comput. 13(7) pp 3185--3197 (2017).
    (doi: 10.1021/acs.jctc.7b00174)

    -----------------------------------------------------------------------


    Psi4 started on: Wednesday, 07 March 2018 09:52AM

    Process ID:  29542
    PSIDATADIR: /theoryfs2/ds/schieber/Gits/mspsi4/objdir3/stage/usr/local/psi4/share/psi4
    Memory:     500.0 MiB
    Threads:    6
    
  ==> Input File <==

--------------------------------------------------------------------------
memory 60 Gb

molecule protein_54 {
0 1
 N   18.626  30.444   6.627
 C   17.853  29.516   5.837
 C   16.945  30.292   4.886
 O   15.843  30.678   5.237
 C   17.047  28.642   6.811
 C   16.316  27.513   6.146
 O   16.236  27.458   4.905
 O   15.762  26.696   6.882
 N   17.407  27.054  -1.437
 C   17.227  26.751  -0.026
 C   18.555  26.446   0.653
 O   19.003  25.309   0.692
 C   16.258  25.572   0.084
 C   15.759  25.336   1.493
 O   16.399  25.780   2.453
 O   14.731  24.675   1.645
 N   19.106  26.199   3.688
 C   18.957  25.372   4.876
 C   18.845  23.903   4.520
 O   18.660  23.054   5.417
 N   20.536  20.559   2.918
 C   21.779  19.912   2.496
 C   21.693  19.374   1.107
 O   22.642  19.502   0.361
 C   22.169  18.827   3.447
 C   22.272  19.337   4.844
 O   22.714  20.482   5.029
 O   21.836  18.647   5.778
 H   18.180  30.990   7.295
 H   18.510  28.835   5.249
 H   16.336  29.276   7.377
 H   17.778  28.186   7.516
 H   15.845  26.702   7.843
 H   17.860  26.421  -2.023
 H   16.724  27.595   0.500
 H   16.724  24.663  -0.337
 H   15.363  25.845  -0.519
 H   16.737  25.171   3.109
 H   18.314  26.771   3.377
 H   18.015  25.631   5.391
 H   19.792  25.567   5.577
 H   19.976  20.073   3.597
 H   22.602  20.664   2.537
 H   23.175  18.459   3.144
 H   21.465  17.966   3.392
 H   21.492  17.752   5.634
 H   19.646  30.419   6.619
 H   17.295  30.415   3.850
 H   16.947  27.858  -1.864
 H   19.060  27.284   1.155
 H   20.034  26.347   3.290
 H   18.824  23.654   3.449
 H   20.197  21.395   2.443
 H   20.727  18.956   0.786
}

set {
basis aug-cc-pvqz
scf_type df
guess sad
DF_SCF_TYPE DFJK
}

energy('HF')
--------------------------------------------------------------------------

  Memory set to  55.879 GiB by Python driver.

*** tstart() called on hex15
*** at Wed Mar  7 09:52:53 2018

   => Loading Basis Set <=

    Name: AUG-CC-PVQZ
    Role: ORBITAL
    Keyword: BASIS
    atoms 1, 9, 17, 21                                entry N          line   359 file /theoryfs2/ds/schieber/Gits/mspsi4/objdir3/stage/usr/local/psi4/share/psi4/basis/aug-cc-pvqz.gbs 
    atoms 2-3, 5-6, 10-11, 13-14, 18-19, 22-23, 25-26 entry C          line   299 file /theoryfs2/ds/schieber/Gits/mspsi4/objdir3/stage/usr/local/psi4/share/psi4/basis/aug-cc-pvqz.gbs 
    atoms 4, 7-8, 12, 15-16, 20, 24, 27-28            entry O          line   419 file /theoryfs2/ds/schieber/Gits/mspsi4/objdir3/stage/usr/local/psi4/share/psi4/basis/aug-cc-pvqz.gbs 
    atoms 29-54                                       entry H          line    36 file /theoryfs2/ds/schieber/Gits/mspsi4/objdir3/stage/usr/local/psi4/share/psi4/basis/aug-cc-pvqz.gbs 


         ---------------------------------------------------------
                                   SCF
            by Justin Turney, Rob Parrish, Andy Simmonett
                             and Daniel Smith
                              RHF Reference
                        6 Threads,  57220 MiB Core
         ---------------------------------------------------------

  ==> Geometry <==

    Molecular point group: c1
    Full point group: C1

    Geometry (in Angstrom), charge = 0, multiplicity = 1:

       Center              X                  Y                   Z               Mass       
    ------------   -----------------  -----------------  -----------------  -----------------
           N          0.020074539305     5.686424476598     3.129539240050    14.003074004780
           C         -0.752925460695     4.758424476598     2.339539240050    12.000000000000
           C         -1.660925460695     5.534424476598     1.388539240050    12.000000000000
           O         -2.762925460695     5.920424476598     1.739539240050    15.994914619560
           C         -1.558925460695     3.884424476598     3.313539240050    12.000000000000
           C         -2.289925460695     2.755424476598     2.648539240050    12.000000000000
           O         -2.369925460695     2.700424476598     1.407539240050    15.994914619560
           O         -2.843925460695     1.938424476598     3.384539240050    15.994914619560
           N         -1.198925460695     2.296424476598    -4.934460759950    14.003074004780
           C         -1.378925460695     1.993424476598    -3.523460759950    12.000000000000
           C         -0.050925460695     1.688424476598    -2.844460759950    12.000000000000
           O          0.397074539305     0.551424476598    -2.805460759950    15.994914619560
           C         -2.347925460695     0.814424476598    -3.413460759950    12.000000000000
           C         -2.846925460695     0.578424476598    -2.004460759950    12.000000000000
           O         -2.206925460695     1.022424476598    -1.044460759950    15.994914619560
           O         -3.874925460695    -0.082575523402    -1.852460759950    15.994914619560
           N          0.500074539305     1.441424476598     0.190539240050    14.003074004780
           C          0.351074539305     0.614424476598     1.378539240050    12.000000000000
           C          0.239074539305    -0.854575523402     1.022539240050    12.000000000000
           O          0.054074539305    -1.703575523402     1.919539240050    15.994914619560
           N          1.930074539305    -4.198575523402    -0.579460759950    14.003074004780
           C          3.173074539305    -4.845575523402    -1.001460759950    12.000000000000
           C          3.087074539305    -5.383575523402    -2.390460759950    12.000000000000
           O          4.036074539305    -5.255575523402    -3.136460759950    15.994914619560
           C          3.563074539305    -5.930575523402    -0.050460759950    12.000000000000
           C          3.666074539305    -5.420575523402     1.346539240050    12.000000000000
           O          4.108074539305    -4.275575523402     1.531539240050    15.994914619560
           O          3.230074539305    -6.110575523402     2.280539240050    15.994914619560
           H         -0.425925460695     6.232424476598     3.797539240050     1.007825032070
           H         -0.095925460695     4.077424476598     1.751539240050     1.007825032070
           H         -2.269925460695     4.518424476598     3.879539240050     1.007825032070
           H         -0.827925460695     3.428424476598     4.018539240050     1.007825032070
           H         -2.760925460695     1.944424476598     4.345539240050     1.007825032070
           H         -0.745925460695     1.663424476598    -5.520460759950     1.007825032070
           H         -1.881925460695     2.837424476598    -2.997460759950     1.007825032070
           H         -1.881925460695    -0.094575523402    -3.834460759950     1.007825032070
           H         -3.242925460695     1.087424476598    -4.016460759950     1.007825032070
           H         -1.868925460695     0.413424476598    -0.388460759950     1.007825032070
           H         -0.291925460695     2.013424476598    -0.120460759950     1.007825032070
           H         -0.590925460695     0.873424476598     1.893539240050     1.007825032070
           H          1.186074539305     0.809424476598     2.079539240050     1.007825032070
           H          1.370074539305    -4.684575523402     0.099539240050     1.007825032070
           H          3.996074539305    -4.093575523402    -0.960460759950     1.007825032070
           H          4.569074539305    -6.298575523402    -0.353460759950     1.007825032070
           H          2.859074539305    -6.791575523402    -0.105460759950     1.007825032070
           H          2.886074539305    -7.005575523402     2.136539240050     1.007825032070
           H          1.040074539305     5.661424476598     3.121539240050     1.007825032070
           H         -1.310925460695     5.657424476598     0.352539240050     1.007825032070
           H         -1.658925460695     3.100424476598    -5.361460759950     1.007825032070
           H          0.454074539305     2.526424476598    -2.342460759950     1.007825032070
           H          1.428074539305     1.589424476598    -0.207460759950     1.007825032070
           H          0.218074539305    -1.103575523402    -0.048460759950     1.007825032070
           H          1.591074539305    -3.362575523402    -1.054460759950     1.007825032070
           H          2.121074539305    -5.801575523402    -2.711460759950     1.007825032070

  Running in c1 symmetry.

  Rotational constants: A =      0.00569  B =      0.00205  C =      0.00170 [cm^-1]
  Rotational constants: A =    170.63320  B =     61.47394  C =     50.92296 [MHz]
  Nuclear repulsion = 2605.305023422821705

  Charge       = 0
  Multiplicity = 1
  Electrons    = 218
  Nalpha       = 109
  Nbeta        = 109

  ==> Algorithm <==

  SCF Algorithm Type is DF.
  DIIS enabled.
  MOM disabled.
  Fractional occupation disabled.
  Guess Type is SAD.
  Energy threshold   = 1.00e-06
  Density threshold  = 1.00e-06
  Integral threshold = 0.00e+00

  ==> Primary Basis <==

  Basis Set: AUG-CC-PVQZ
    Blend: AUG-CC-PVQZ
    Number of shells: 924
    Number of basis function: 3436
    Number of Cartesian functions: 4370
    Spherical Harmonics?: true
    Max angular momentum: 4

   => Loading Basis Set <=

    Name: (AUG-CC-PVQZ AUX)
    Role: JKFIT
    Keyword: DF_BASIS_SCF
    atoms 1, 9, 17, 21                                entry N          line   248 file /theoryfs2/ds/schieber/Gits/mspsi4/objdir3/stage/usr/local/psi4/share/psi4/basis/aug-cc-pvqz-jkfit.gbs 
    atoms 2-3, 5-6, 10-11, 13-14, 18-19, 22-23, 25-26 entry C          line   178 file /theoryfs2/ds/schieber/Gits/mspsi4/objdir3/stage/usr/local/psi4/share/psi4/basis/aug-cc-pvqz-jkfit.gbs 
    atoms 4, 7-8, 12, 15-16, 20, 24, 27-28            entry O          line   318 file /theoryfs2/ds/schieber/Gits/mspsi4/objdir3/stage/usr/local/psi4/share/psi4/basis/aug-cc-pvqz-jkfit.gbs 
    atoms 29-54                                       entry H          line    70 file /theoryfs2/ds/schieber/Gits/mspsi4/objdir3/stage/usr/local/psi4/share/psi4/basis/aug-cc-pvqz-jkfit.gbs 

  ==> Pre-Iterations <==

   -------------------------------------------------------
    Irrep   Nso     Nmo     Nalpha   Nbeta   Ndocc  Nsocc
   -------------------------------------------------------
     A       3436    3436       0       0       0       0
   -------------------------------------------------------
    Total    3436    3436     109     109     109       0
   -------------------------------------------------------

  ==> Integral Setup <==

  ==> DFJK: Density-Fitted J/K Matrices <==

    J tasked:                  Yes
    K tasked:                  Yes
    wK tasked:                  No
    OpenMP threads:              6
    Integrals threads:           6
    Memory (MB):             42915
    Algorithm:                Disk
    Integral Cache:           NONE
    Schwarz Cutoff:          1E-12
    Fitting Condition:       1E-12

   => Auxiliary Basis Set <=

  Basis Set: (AUG-CC-PVQZ AUX)
    Blend: AUG-CC-PVQZ-JKFIT
    Number of shells: 1420
    Number of basis function: 5952
    Number of Cartesian functions: 8170
    Spherical Harmonics?: true
    Max angular momentum: 5

  Minimum eigenvalue in the overlap matrix is 3.7397819978E-07.
  Using Symmetric Orthogonalization.

  SCF Guess: Superposition of Atomic Densities via on-the-fly atomic UHF.

  ==> Iterations <==

                           Total Energy        Delta E     RMS |[F,P]|

   @DF-RHF iter   0: -1521.63657924201061   -1.52164e+03   7.08417e-03 
   @DF-RHF iter   1: -1511.14606746992263    1.04905e+01   9.94073e-04 
   @DF-RHF iter   2: -1511.81973853513023   -6.73671e-01   7.44252e-04 DIIS
   @DF-RHF iter   3: -1512.20622155487717   -3.86483e-01   1.42571e-04 DIIS
   @DF-RHF iter   4: -1512.24225518923436   -3.60336e-02   5.42983e-05 DIIS
   @DF-RHF iter   5: -1512.24833347525305   -6.07829e-03   2.39114e-05 DIIS
   @DF-RHF iter   6: -1512.24989283601462   -1.55936e-03   1.06854e-05 DIIS
   @DF-RHF iter   7: -1512.25027001260537   -3.77177e-04   4.85171e-06 DIIS
   @DF-RHF iter   8: -1512.25034182503191   -7.18124e-05   2.02050e-06 DIIS
   @DF-RHF iter   9: -1512.25035959996831   -1.77749e-05   9.83027e-07 DIIS
   @DF-RHF iter  10: -1512.25036492860954   -5.32864e-06   5.03642e-07 DIIS
   @DF-RHF iter  11: -1512.25036649598360   -1.56737e-06   2.02916e-07 DIIS
   @DF-RHF iter  12: -1512.25036672417741   -2.28194e-07   8.77147e-08 DIIS

  ==> Post-Iterations <==

    Orbital Energies (a.u.)
    -----------------------

    Doubly Occupied:                                                      

       1A    -20.645497     2A    -20.635983     3A    -20.603862  
       4A    -20.568917     5A    -20.561276     6A    -20.558768  
       7A    -20.558126     8A    -20.540362     9A    -20.520006  
      10A    -20.517034    11A    -15.559978    12A    -15.553971  
      13A    -15.549369    14A    -15.543990    15A    -11.397891  
      16A    -11.383127    17A    -11.368088    18A    -11.346165  
      19A    -11.339129    20A    -11.337130    21A    -11.327159  
      22A    -11.297823    23A    -11.292068    24A    -11.282311  
      25A    -11.276564    26A    -11.265857    27A    -11.265799  
      28A    -11.240241    29A     -1.529707    30A     -1.513535  
      31A     -1.501389    32A     -1.399151    33A     -1.393541  
      34A     -1.393029    35A     -1.369116    36A     -1.359250  
      37A     -1.340763    38A     -1.335123    39A     -1.215946  
      40A     -1.204710    41A     -1.194677    42A     -1.186721  
      43A     -1.057547    44A     -1.056666    45A     -1.045887  
      46A     -0.966236    47A     -0.951963    48A     -0.941384  
      49A     -0.939522    50A     -0.908755    51A     -0.891859  
      52A     -0.877570    53A     -0.811695    54A     -0.804928  
      55A     -0.799925    56A     -0.797799    57A     -0.749873  
      58A     -0.734928    59A     -0.734449    60A     -0.720806  
      61A     -0.713351    62A     -0.708040    63A     -0.697730  
      64A     -0.695782    65A     -0.690453    66A     -0.687707  
      67A     -0.680886    68A     -0.668243    69A     -0.666972  
      70A     -0.664355    71A     -0.661082    72A     -0.659436  
      73A     -0.656243    74A     -0.645749    75A     -0.635874  
      76A     -0.633273    77A     -0.632333    78A     -0.631188  
      79A     -0.624999    80A     -0.611450    81A     -0.592042  
      82A     -0.579098    83A     -0.575580    84A     -0.568552  
      85A     -0.565019    86A     -0.561210    87A     -0.551323  
      88A     -0.534726    89A     -0.533772    90A     -0.532782  
      91A     -0.523497    92A     -0.517617    93A     -0.508958  
      94A     -0.502502    95A     -0.489931    96A     -0.476510  
      97A     -0.464598    98A     -0.460803    99A     -0.459346  
     100A     -0.450878   101A     -0.446849   102A     -0.445328  
     103A     -0.442092   104A     -0.437800   105A     -0.434127  
     106A     -0.388394   107A     -0.383898   108A     -0.380000  
     109A     -0.377751  

    Virtual:                                                              

     110A      0.011066   111A      0.014796   112A      0.016750  
     113A      0.022491   114A      0.029348   115A      0.030742  
     116A      0.034147   117A      0.036846   118A      0.039501  
     119A      0.042738   120A      0.044930   121A      0.045578  
     122A      0.051493   123A      0.053771   124A      0.054729  
     125A      0.057701   126A      0.060462   127A      0.063108  
     128A      0.065364   129A      0.068195   130A      0.071818  
     131A      0.073521   132A      0.076178   133A      0.077330  
     134A      0.080621   135A      0.082734   136A      0.083381  
     137A      0.085227   138A      0.086717   139A      0.089164  
     140A      0.090832   141A      0.091214   142A      0.094086  
     143A      0.095067   144A      0.097498   145A      0.101525  
     146A      0.101878   147A      0.104128   148A      0.105289  
     149A      0.108611   150A      0.109841   151A      0.110442  
     152A      0.112192   153A      0.114821   154A      0.116508  
     155A      0.116769   156A      0.119054   157A      0.121606  
     158A      0.122867   159A      0.123519   160A      0.125196  
     161A      0.126013   162A      0.127619   163A      0.129632  
     164A      0.130638   165A      0.132638   166A      0.133844  
     167A      0.134581   168A      0.137069   169A      0.139115  
     170A      0.141007   171A      0.141847   172A      0.144476  
     173A      0.145803   174A      0.146318   175A      0.148624  
     176A      0.151572   177A      0.153109   178A      0.156430  
     179A      0.158134   180A      0.158255   181A      0.160353  
     182A      0.162562   183A      0.164957   184A      0.165565  
     185A      0.167857   186A      0.168270   187A      0.169134  
     188A      0.172666   189A      0.175051   190A      0.176290  
     191A      0.177770   192A      0.180078   193A      0.183564  
     194A      0.185223   195A      0.187410   196A      0.187876  
     197A      0.189556   198A      0.191892   199A      0.194422  
     200A      0.196522   201A      0.199149   202A      0.201127  
     203A      0.202872   204A      0.203575   205A      0.205153  
     206A      0.206373   207A      0.209173   208A      0.213078  
     209A      0.213538   210A      0.215485   211A      0.215843  
     212A      0.218029   213A      0.219141   214A      0.222315  
     215A      0.223084   216A      0.225473   217A      0.227816  
     218A      0.229581   219A      0.230456   220A      0.232371  
     221A      0.235909   222A      0.237165   223A      0.238717  
     224A      0.239985   225A      0.242458   226A      0.243880  
     227A      0.245998   228A      0.248822   229A      0.248999  
     230A      0.251942   231A      0.253149   232A      0.254326  
     233A      0.257647   234A      0.259274   235A      0.260616  
     236A      0.263572   237A      0.263816   238A      0.265285  
     239A      0.266531   240A      0.267456   241A      0.269352  
     242A      0.270692   243A      0.272636   244A      0.274771  
     245A      0.276107   246A      0.276753   247A      0.278268  
     248A      0.279128   249A      0.280321   250A      0.283027  
     251A      0.283579   252A      0.284862   253A      0.287609  
     254A      0.289098   255A      0.289661   256A      0.291307  
     257A      0.295406   258A      0.298473   259A      0.298655  
     260A      0.300279   261A      0.301617   262A      0.302246  
     263A      0.304574   264A      0.307213   265A      0.309325  
     266A      0.310009   267A      0.310256   268A      0.314078  
     269A      0.314608   270A      0.318445   271A      0.318906  
     272A      0.319541   273A      0.319943   274A      0.324412  
     275A      0.325978   276A      0.326833   277A      0.327045  
     278A      0.329523   279A      0.330246   280A      0.331536  
     281A      0.333062   282A      0.335052   283A      0.338082  
     284A      0.340227   285A      0.342044   286A      0.342865  
     287A      0.345571   288A      0.346439   289A      0.348695  
     290A      0.351321   291A      0.352694   292A      0.353818  
     293A      0.357886   294A      0.358945   295A      0.361266  
     296A      0.362147   297A      0.363053   298A      0.364242  
     299A      0.366679   300A      0.367496   301A      0.370717  
     302A      0.372501   303A      0.372891   304A      0.374836  
     305A      0.376024   306A      0.376552   307A      0.379655  
     308A      0.382935   309A      0.383084   310A      0.384918  
     311A      0.385430   312A      0.388597   313A      0.389168  
     314A      0.391577   315A      0.392037   316A      0.393545  
     317A      0.394510   318A      0.395979   319A      0.399074  
     320A      0.400425   321A      0.401414   322A      0.403494  
     323A      0.404152   324A      0.405005   325A      0.408668  
     326A      0.409520   327A      0.412411   328A      0.414247  
     329A      0.416867   330A      0.417920   331A      0.418564  
     332A      0.419195   333A      0.422695   334A      0.425238  
     335A      0.426412   336A      0.428661   337A      0.429347  
     338A      0.430951   339A      0.432167   340A      0.434263  
     341A      0.435351   342A      0.436290   343A      0.438333  
     344A      0.440439   345A      0.443793   346A      0.444950  
     347A      0.445364   348A      0.447961   349A      0.448469  
     350A      0.450256   351A      0.452560   352A      0.453702  
     353A      0.455099   354A      0.457732   355A      0.459276  
     356A      0.460510   357A      0.460917   358A      0.463901  
     359A      0.464033   360A      0.467277   361A      0.467694  
     362A      0.469966   363A      0.470644   364A      0.473116  
     365A      0.474778   366A      0.475431   367A      0.476533  
     368A      0.478760   369A      0.479580   370A      0.480978  
     371A      0.483522   372A      0.485756   373A      0.486765  
     374A      0.487910   375A      0.487981   376A      0.490408  
     377A      0.491604   378A      0.493421   379A      0.495802  
     380A      0.498792   381A      0.499831   382A      0.501649  
     383A      0.502919   384A      0.504877   385A      0.505455  
     386A      0.506372   387A      0.508179   388A      0.510882  
     389A      0.511653   390A      0.514060   391A      0.518008  
     392A      0.521959   393A      0.522272   394A      0.523338  
     395A      0.525893   396A      0.526989   397A      0.528215  
     398A      0.529244   399A      0.530538   400A      0.532973  
     401A      0.534969   402A      0.536611   403A      0.537910  
     404A      0.540871   405A      0.543045   406A      0.544281  
     407A      0.544409   408A      0.546178   409A      0.550598  
     410A      0.551547   411A      0.552241   412A      0.554635  
     413A      0.557754   414A      0.558435   415A      0.560658  
     416A      0.563671   417A      0.566754   418A      0.567158  
     419A      0.570293   420A      0.570508   421A      0.572553  
     422A      0.574495   423A      0.577214   424A      0.579969  
     425A      0.581234   426A      0.582260   427A      0.583659  
     428A      0.585158   429A      0.586724   430A      0.588104  
     431A      0.591504   432A      0.592674   433A      0.593555  
     434A      0.595664   435A      0.596447   436A      0.599280  
     437A      0.601934   438A      0.603305   439A      0.604076  
     440A      0.606243   441A      0.611496   442A      0.613425  
     443A      0.615015   444A      0.616042   445A      0.617002  
     446A      0.618477   447A      0.621953   448A      0.623187  
     449A      0.625504   450A      0.627535   451A      0.629475  
     452A      0.630709   453A      0.633090   454A      0.634159  
     455A      0.635933   456A      0.636202   457A      0.641476  
     458A      0.642753   459A      0.644491   460A      0.646523  
     461A      0.648487   462A      0.650395   463A      0.653601  
     464A      0.655078   465A      0.656648   466A      0.659271  
     467A      0.660224   468A      0.661754   469A      0.662584  
     470A      0.665232   471A      0.667806   472A      0.668063  
     473A      0.669629   474A      0.671496   475A      0.673617  
     476A      0.677015   477A      0.677898   478A      0.680039  
     479A      0.681470   480A      0.682231   481A      0.684847  
     482A      0.684988   483A      0.688741   484A      0.691056  
     485A      0.692257   486A      0.693994   487A      0.696726  
     488A      0.697084   489A      0.699470   490A      0.701675  
     491A      0.703155   492A      0.704393   493A      0.706724  
     494A      0.707096   495A      0.709553   496A      0.710873  
     497A      0.713025   498A      0.715589   499A      0.717344  
     500A      0.719437   501A      0.720201   502A      0.722792  
     503A      0.724980   504A      0.727464   505A      0.728716  
     506A      0.729779   507A      0.732113   508A      0.734328  
     509A      0.735988   510A      0.737547   511A      0.738647  
     512A      0.740650   513A      0.743219   514A      0.744570  
     515A      0.746630   516A      0.747589   517A      0.750237  
     518A      0.752148   519A      0.753728   520A      0.756284  
     521A      0.756559   522A      0.758796   523A      0.760624  
     524A      0.762235   525A      0.763793   526A      0.764376  
     527A      0.766524   528A      0.770114   529A      0.770735  
     530A      0.773041   531A      0.774247   532A      0.776794  
     533A      0.778444   534A      0.780925   535A      0.782203  
     536A      0.784686   537A      0.785884   538A      0.787004  
     539A      0.789099   540A      0.790645   541A      0.792820  
     542A      0.794067   543A      0.796798   544A      0.798098  
     545A      0.799387   546A      0.801389   547A      0.802719  
     548A      0.805944   549A      0.808514   550A      0.809206  
     551A      0.810359   552A      0.811169   553A      0.813109  
     554A      0.814202   555A      0.815595   556A      0.819526  
     557A      0.820025   558A      0.820821   559A      0.822821  
     560A      0.826076   561A      0.826751   562A      0.830102  
     563A      0.831703   564A      0.834978   565A      0.837287  
     566A      0.837570   567A      0.838969   568A      0.842018  
     569A      0.842308   570A      0.845202   571A      0.846215  
     572A      0.849395   573A      0.851658   574A      0.853574  
     575A      0.854301   576A      0.855366   577A      0.857997  
     578A      0.860873   579A      0.861263   580A      0.863067  
     581A      0.863972   582A      0.865432   583A      0.868726  
     584A      0.869312   585A      0.872905   586A      0.874522  
     587A      0.875139   588A      0.876156   589A      0.878649  
     590A      0.879599   591A      0.879871   592A      0.881754  
     593A      0.885572   594A      0.887758   595A      0.888256  
     596A      0.890009   597A      0.891996   598A      0.894378  
     599A      0.896678   600A      0.898941   601A      0.899541  
     602A      0.900636   603A      0.904068   604A      0.907692  
     605A      0.908645   606A      0.909526   607A      0.913935  
     608A      0.914637   609A      0.915047   610A      0.917525  
     611A      0.920143   612A      0.920759   613A      0.921540  
     614A      0.923758   615A      0.925455   616A      0.927258  
     617A      0.928728   618A      0.930773   619A      0.932998  
     620A      0.934414   621A      0.936276   622A      0.937012  
     623A      0.938271   624A      0.939621   625A      0.944143  
     626A      0.945958   627A      0.948400   628A      0.950143  
     629A      0.951792   630A      0.952061   631A      0.954461  
     632A      0.956393   633A      0.957936   634A      0.959264  
     635A      0.961471   636A      0.964550   637A      0.965135  
     638A      0.967634   639A      0.968488   640A      0.970405  
     641A      0.971968   642A      0.975767   643A      0.977849  
     644A      0.979193   645A      0.981651   646A      0.983849  
     647A      0.985069   648A      0.985978   649A      0.990529  
     650A      0.993343   651A      0.995770   652A      0.996722  
     653A      0.999121   654A      0.999993   655A      1.003613  
     656A      1.004583   657A      1.006533   658A      1.007637  
     659A      1.008946   660A      1.011306   661A      1.013604  
     662A      1.015756   663A      1.018342   664A      1.018953  
     665A      1.020524   666A      1.022161   667A      1.023737  
     668A      1.026716   669A      1.027917   670A      1.029118  
     671A      1.033129   672A      1.034659   673A      1.035686  
     674A      1.038260   675A      1.039769   676A      1.042443  
     677A      1.044975   678A      1.047622   679A      1.049772  
     680A      1.049870   681A      1.050167   682A      1.053304  
     683A      1.055848   684A      1.058706   685A      1.060762  
     686A      1.062251   687A      1.064970   688A      1.066712  
     689A      1.068614   690A      1.069475   691A      1.072685  
     692A      1.073843   693A      1.078536   694A      1.080197  
     695A      1.082364   696A      1.085298   697A      1.085879  
     698A      1.088660   699A      1.089347   700A      1.091574  
     701A      1.095018   702A      1.095688   703A      1.098386  
     704A      1.100622   705A      1.103657   706A      1.106671  
     707A      1.108922   708A      1.109846   709A      1.111492  
     710A      1.113335   711A      1.116824   712A      1.117696  
     713A      1.118166   714A      1.123144   715A      1.123392  
     716A      1.125234   717A      1.126464   718A      1.127419  
     719A      1.128554   720A      1.130218   721A      1.131005  
     722A      1.134771   723A      1.136515   724A      1.139146  
     725A      1.140438   726A      1.141339   727A      1.145423  
     728A      1.146126   729A      1.149413   730A      1.151138  
     731A      1.151701   732A      1.156111   733A      1.156688  
     734A      1.159965   735A      1.162561   736A      1.165508  
     737A      1.167223   738A      1.167776   739A      1.171919  
     740A      1.174366   741A      1.175960   742A      1.178295  
     743A      1.179508   744A      1.182146   745A      1.184961  
     746A      1.186482   747A      1.187574   748A      1.190953  
     749A      1.195651   750A      1.197099   751A      1.198345  
     752A      1.199789   753A      1.200590   754A      1.201680  
     755A      1.205586   756A      1.206298   757A      1.209015  
     758A      1.210949   759A      1.212161   760A      1.215882  
     761A      1.217049   762A      1.219357   763A      1.222838  
     764A      1.223155   765A      1.227107   766A      1.227612  
     767A      1.229168   768A      1.230600   769A      1.231910  
     770A      1.235786   771A      1.236294   772A      1.239678  
     773A      1.240168   774A      1.242718   775A      1.244500  
     776A      1.246343   777A      1.248777   778A      1.249641  
     779A      1.254051   780A      1.256325   781A      1.256435  
     782A      1.258704   783A      1.259371   784A      1.262235  
     785A      1.266216   786A      1.268421   787A      1.271178  
     788A      1.272765   789A      1.274067   790A      1.277103  
     791A      1.277682   792A      1.279474   793A      1.280104  
     794A      1.286090   795A      1.287692   796A      1.287998  
     797A      1.291039   798A      1.293186   799A      1.297275  
     800A      1.298878   801A      1.302134   802A      1.303167  
     803A      1.306128   804A      1.308216   805A      1.311797  
     806A      1.313856   807A      1.316009   808A      1.320216  
     809A      1.321104   810A      1.323294   811A      1.325664  
     812A      1.327741   813A      1.332184   814A      1.332558  
     815A      1.335855   816A      1.337363   817A      1.340081  
     818A      1.342270   819A      1.344653   820A      1.348786  
     821A      1.350113   822A      1.352788   823A      1.354204  
     824A      1.356060   825A      1.356755   826A      1.359181  
     827A      1.360103   828A      1.363715   829A      1.365051  
     830A      1.366210   831A      1.371883   832A      1.373385  
     833A      1.375121   834A      1.379556   835A      1.381301  
     836A      1.385669   837A      1.386154   838A      1.388165  
     839A      1.391196   840A      1.393409   841A      1.395348  
     842A      1.397125   843A      1.398103   844A      1.401699  
     845A      1.404233   846A      1.407873   847A      1.410023  
     848A      1.412591   849A      1.414013   850A      1.417342  
     851A      1.419347   852A      1.419635   853A      1.423893  
     854A      1.425491   855A      1.428118   856A      1.428985  
     857A      1.431857   858A      1.435573   859A      1.437172  
     860A      1.437637   861A      1.442553   862A      1.444213  
     863A      1.448232   864A      1.451584   865A      1.453035  
     866A      1.453721   867A      1.457903   868A      1.459273  
     869A      1.464079   870A      1.465133   871A      1.466109  
     872A      1.470769   873A      1.474174   874A      1.479034  
     875A      1.479857   876A      1.481883   877A      1.484371  
     878A      1.487521   879A      1.489937   880A      1.490776  
     881A      1.492959   882A      1.495872   883A      1.497945  
     884A      1.499616   885A      1.502994   886A      1.503897  
     887A      1.508938   888A      1.514168   889A      1.515532  
     890A      1.518369   891A      1.520371   892A      1.522768  
     893A      1.527280   894A      1.528915   895A      1.531149  
     896A      1.533415   897A      1.536145   898A      1.536703  
     899A      1.541981   900A      1.542851   901A      1.544093  
     902A      1.547827   903A      1.548596   904A      1.552033  
     905A      1.553555   906A      1.555084   907A      1.556369  
     908A      1.557765   909A      1.561438   910A      1.562335  
     911A      1.565975   912A      1.567091   913A      1.571042  
     914A      1.572660   915A      1.574122   916A      1.579012  
     917A      1.581031   918A      1.581350   919A      1.584483  
     920A      1.585978   921A      1.589584   922A      1.591786  
     923A      1.594600   924A      1.596024   925A      1.599595  
     926A      1.602366   927A      1.603542   928A      1.606458  
     929A      1.609707   930A      1.611666   931A      1.615379  
     932A      1.616396   933A      1.618516   934A      1.622210  
     935A      1.624066   936A      1.625111   937A      1.628221  
     938A      1.630447   939A      1.633688   940A      1.635080  
     941A      1.640313   942A      1.641069   943A      1.644624  
     944A      1.645576   945A      1.647789   946A      1.648264  
     947A      1.653068   948A      1.654161   949A      1.658134  
     950A      1.664178   951A      1.664289   952A      1.667533  
     953A      1.669631   954A      1.674101   955A      1.675716  
     956A      1.676378   957A      1.677778   958A      1.682014  
     959A      1.686718   960A      1.687430   961A      1.688192  
     962A      1.690994   963A      1.693940   964A      1.696189  
     965A      1.699555   966A      1.701872   967A      1.702536  
     968A      1.704826   969A      1.709090   970A      1.712470  
     971A      1.715316   972A      1.716221   973A      1.717744  
     974A      1.722894   975A      1.724898   976A      1.725320  
     977A      1.728924   978A      1.731384   979A      1.734714  
     980A      1.735940   981A      1.736812   982A      1.739044  
     983A      1.742662   984A      1.744001   985A      1.747395  
     986A      1.749841   987A      1.751790   988A      1.753275  
     989A      1.756305   990A      1.758591   991A      1.761701  
     992A      1.762450   993A      1.765747   994A      1.770216  
     995A      1.772061   996A      1.773770   997A      1.776034  
     998A      1.779020   999A      1.782953  1000A      1.783413  
    1001A      1.784920  1002A      1.789261  1003A      1.792282  
    1004A      1.794810  1005A      1.797916  1006A      1.800199  
    1007A      1.801933  1008A      1.803207  1009A      1.805510  
    1010A      1.807238  1011A      1.811479  1012A      1.813232  
    1013A      1.815644  1014A      1.819419  1015A      1.820146  
    1016A      1.823291  1017A      1.823588  1018A      1.825829  
    1019A      1.827562  1020A      1.829922  1021A      1.835573  
    1022A      1.837436  1023A      1.837983  1024A      1.838597  
    1025A      1.842253  1026A      1.844642  1027A      1.847873  
    1028A      1.849388  1029A      1.851414  1030A      1.853708  
    1031A      1.855864  1032A      1.858228  1033A      1.861937  
    1034A      1.862029  1035A      1.863929  1036A      1.864435  
    1037A      1.868554  1038A      1.869786  1039A      1.872180  
    1040A      1.875131  1041A      1.876412  1042A      1.879953  
    1043A      1.881319  1044A      1.881841  1045A      1.883815  
    1046A      1.888273  1047A      1.890395  1048A      1.891942  
    1049A      1.892666  1050A      1.895987  1051A      1.897717  
    1052A      1.898927  1053A      1.904049  1054A      1.905442  
    1055A      1.910252  1056A      1.912010  1057A      1.912639  
    1058A      1.913864  1059A      1.914590  1060A      1.915904  
    1061A      1.920080  1062A      1.922344  1063A      1.924008  
    1064A      1.928776  1065A      1.930990  1066A      1.932059  
    1067A      1.934667  1068A      1.935724  1069A      1.938604  
    1070A      1.940140  1071A      1.943306  1072A      1.946100  
    1073A      1.947943  1074A      1.951634  1075A      1.953026  
    1076A      1.953975  1077A      1.954716  1078A      1.957867  
    1079A      1.960958  1080A      1.963753  1081A      1.966482  
    1082A      1.967615  1083A      1.969647  1084A      1.971543  
    1085A      1.974385  1086A      1.976457  1087A      1.977690  
    1088A      1.979112  1089A      1.980566  1090A      1.985214  
    1091A      1.987982  1092A      1.988180  1093A      1.991371  
    1094A      1.993937  1095A      1.996517  1096A      1.998047  
    1097A      1.999278  1098A      2.001849  1099A      2.003445  
    1100A      2.006507  1101A      2.007634  1102A      2.010713  
    1103A      2.015238  1104A      2.017886  1105A      2.018190  
    1106A      2.020525  1107A      2.022927  1108A      2.024203  
    1109A      2.025547  1110A      2.030254  1111A      2.032567  
    1112A      2.034092  1113A      2.036760  1114A      2.037192  
    1115A      2.039282  1116A      2.040861  1117A      2.044966  
    1118A      2.047894  1119A      2.051874  1120A      2.053541  
    1121A      2.056592  1122A      2.058878  1123A      2.062225  
    1124A      2.062438  1125A      2.065347  1126A      2.070675  
    1127A      2.071422  1128A      2.072713  1129A      2.073877  
    1130A      2.076514  1131A      2.079595  1132A      2.081659  
    1133A      2.082336  1134A      2.085733  1135A      2.086421  
    1136A      2.087991  1137A      2.091434  1138A      2.092850  
    1139A      2.095663  1140A      2.097383  1141A      2.098589  
    1142A      2.101130  1143A      2.105135  1144A      2.106436  
    1145A      2.110936  1146A      2.113194  1147A      2.113989  
    1148A      2.116256  1149A      2.117374  1150A      2.121564  
    1151A      2.122899  1152A      2.123761  1153A      2.126492  
    1154A      2.127606  1155A      2.130849  1156A      2.132185  
    1157A      2.133857  1158A      2.136302  1159A      2.138439  
    1160A      2.140433  1161A      2.143782  1162A      2.144405  
    1163A      2.146514  1164A      2.150226  1165A      2.152555  
    1166A      2.153508  1167A      2.155058  1168A      2.157925  
    1169A      2.161371  1170A      2.164781  1171A      2.166497  
    1172A      2.166711  1173A      2.170435  1174A      2.171066  
    1175A      2.175515  1176A      2.176775  1177A      2.177647  
    1178A      2.180915  1179A      2.182056  1180A      2.182875  
    1181A      2.185543  1182A      2.188499  1183A      2.189251  
    1184A      2.191758  1185A      2.194836  1186A      2.198001  
    1187A      2.200137  1188A      2.200588  1189A      2.201468  
    1190A      2.204165  1191A      2.205806  1192A      2.207764  
    1193A      2.209106  1194A      2.213952  1195A      2.214225  
    1196A      2.217277  1197A      2.219860  1198A      2.221580  
    1199A      2.222900  1200A      2.225946  1201A      2.227426  
    1202A      2.229589  1203A      2.231485  1204A      2.233393  
    1205A      2.235463  1206A      2.236013  1207A      2.238184  
    1208A      2.240680  1209A      2.241128  1210A      2.246399  
    1211A      2.247034  1212A      2.249315  1213A      2.250713  
    1214A      2.253377  1215A      2.256428  1216A      2.257978  
    1217A      2.259286  1218A      2.259640  1219A      2.264001  
    1220A      2.265724  1221A      2.266561  1222A      2.267802  
    1223A      2.270321  1224A      2.271465  1225A      2.272333  
    1226A      2.273944  1227A      2.274423  1228A      2.279238  
    1229A      2.282701  1230A      2.284349  1231A      2.286223  
    1232A      2.290899  1233A      2.292196  1234A      2.293302  
    1235A      2.295071  1236A      2.296508  1237A      2.298728  
    1238A      2.301694  1239A      2.302650  1240A      2.305504  
    1241A      2.306498  1242A      2.309454  1243A      2.311908  
    1244A      2.313917  1245A      2.317234  1246A      2.319165  
    1247A      2.320552  1248A      2.324357  1249A      2.326847  
    1250A      2.331680  1251A      2.332090  1252A      2.333114  
    1253A      2.337363  1254A      2.338167  1255A      2.338602  
    1256A      2.342470  1257A      2.346026  1258A      2.348527  
    1259A      2.350745  1260A      2.352045  1261A      2.354664  
    1262A      2.357011  1263A      2.357553  1264A      2.363297  
    1265A      2.364773  1266A      2.366265  1267A      2.366908  
    1268A      2.370061  1269A      2.370763  1270A      2.371684  
    1271A      2.373989  1272A      2.376818  1273A      2.379271  
    1274A      2.382032  1275A      2.382791  1276A      2.386725  
    1277A      2.387687  1278A      2.389317  1279A      2.390476  
    1280A      2.394750  1281A      2.396220  1282A      2.401072  
    1283A      2.405203  1284A      2.406144  1285A      2.409132  
    1286A      2.412948  1287A      2.414186  1288A      2.415393  
    1289A      2.416934  1290A      2.419091  1291A      2.419768  
    1292A      2.423258  1293A      2.424336  1294A      2.426246  
    1295A      2.429441  1296A      2.433991  1297A      2.437535  
    1298A      2.438708  1299A      2.441410  1300A      2.446537  
    1301A      2.448608  1302A      2.450722  1303A      2.454700  
    1304A      2.456343  1305A      2.457771  1306A      2.460870  
    1307A      2.461731  1308A      2.462236  1309A      2.466157  
    1310A      2.470729  1311A      2.471083  1312A      2.473979  
    1313A      2.476249  1314A      2.480027  1315A      2.480767  
    1316A      2.482047  1317A      2.485509  1318A      2.487374  
    1319A      2.490504  1320A      2.491465  1321A      2.494056  
    1322A      2.495545  1323A      2.498279  1324A      2.503213  
    1325A      2.507894  1326A      2.508218  1327A      2.509387  
    1328A      2.510572  1329A      2.513889  1330A      2.518488  
    1331A      2.519323  1332A      2.521930  1333A      2.526113  
    1334A      2.528065  1335A      2.530534  1336A      2.533421  
    1337A      2.535750  1338A      2.537256  1339A      2.540487  
    1340A      2.541322  1341A      2.543744  1342A      2.546699  
    1343A      2.550702  1344A      2.553668  1345A      2.555841  
    1346A      2.559077  1347A      2.559263  1348A      2.561820  
    1349A      2.563456  1350A      2.565417  1351A      2.567860  
    1352A      2.572313  1353A      2.573427  1354A      2.576149  
    1355A      2.580226  1356A      2.582689  1357A      2.587503  
    1358A      2.591113  1359A      2.593416  1360A      2.595945  
    1361A      2.597507  1362A      2.602895  1363A      2.604630  
    1364A      2.607473  1365A      2.608910  1366A      2.612546  
    1367A      2.615469  1368A      2.616926  1369A      2.623366  
    1370A      2.625737  1371A      2.626284  1372A      2.632366  
    1373A      2.633413  1374A      2.635453  1375A      2.636382  
    1376A      2.638469  1377A      2.641384  1378A      2.646148  
    1379A      2.650091  1380A      2.651007  1381A      2.655472  
    1382A      2.657705  1383A      2.660967  1384A      2.662889  
    1385A      2.666508  1386A      2.666965  1387A      2.669624  
    1388A      2.671654  1389A      2.674474  1390A      2.677696  
    1391A      2.681280  1392A      2.682244  1393A      2.688615  
    1394A      2.689168  1395A      2.690170  1396A      2.692549  
    1397A      2.694047  1398A      2.695876  1399A      2.699662  
    1400A      2.705242  1401A      2.706935  1402A      2.709308  
    1403A      2.712054  1404A      2.716292  1405A      2.723350  
    1406A      2.724422  1407A      2.725656  1408A      2.728234  
    1409A      2.734612  1410A      2.738026  1411A      2.740894  
    1412A      2.746955  1413A      2.747134  1414A      2.750109  
    1415A      2.752566  1416A      2.757222  1417A      2.760362  
    1418A      2.762017  1419A      2.763982  1420A      2.766580  
    1421A      2.769711  1422A      2.773341  1423A      2.775450  
    1424A      2.779185  1425A      2.783888  1426A      2.786369  
    1427A      2.788032  1428A      2.791896  1429A      2.795876  
    1430A      2.799403  1431A      2.801615  1432A      2.802559  
    1433A      2.806934  1434A      2.809987  1435A      2.815043  
    1436A      2.816437  1437A      2.819027  1438A      2.820947  
    1439A      2.824711  1440A      2.826356  1441A      2.829423  
    1442A      2.832941  1443A      2.834378  1444A      2.836968  
    1445A      2.838495  1446A      2.840587  1447A      2.846557  
    1448A      2.847473  1449A      2.852953  1450A      2.854939  
    1451A      2.856061  1452A      2.859543  1453A      2.866899  
    1454A      2.872422  1455A      2.873193  1456A      2.875995  
    1457A      2.876801  1458A      2.879208  1459A      2.882282  
    1460A      2.886057  1461A      2.888938  1462A      2.892779  
    1463A      2.894036  1464A      2.896813  1465A      2.900552  
    1466A      2.902013  1467A      2.905585  1468A      2.909402  
    1469A      2.911912  1470A      2.912558  1471A      2.915001  
    1472A      2.919678  1473A      2.921085  1474A      2.922612  
    1475A      2.929333  1476A      2.931289  1477A      2.932732  
    1478A      2.935568  1479A      2.940647  1480A      2.942151  
    1481A      2.945199  1482A      2.948379  1483A      2.951014  
    1484A      2.956165  1485A      2.957443  1486A      2.957906  
    1487A      2.961608  1488A      2.967943  1489A      2.969029  
    1490A      2.969365  1491A      2.976341  1492A      2.977987  
    1493A      2.981144  1494A      2.984884  1495A      2.986606  
    1496A      2.991217  1497A      2.993207  1498A      2.996040  
    1499A      3.000880  1500A      3.002061  1501A      3.003988  
    1502A      3.006701  1503A      3.008569  1504A      3.014698  
    1505A      3.019948  1506A      3.024675  1507A      3.026614  
    1508A      3.028071  1509A      3.029661  1510A      3.034280  
    1511A      3.036456  1512A      3.040054  1513A      3.041138  
    1514A      3.045867  1515A      3.046395  1516A      3.049502  
    1517A      3.053174  1518A      3.055201  1519A      3.057574  
    1520A      3.060039  1521A      3.061972  1522A      3.063120  
    1523A      3.066873  1524A      3.069881  1525A      3.073203  
    1526A      3.076325  1527A      3.077368  1528A      3.079207  
    1529A      3.084315  1530A      3.085929  1531A      3.087089  
    1532A      3.090302  1533A      3.092844  1534A      3.094126  
    1535A      3.096295  1536A      3.099543  1537A      3.102851  
    1538A      3.104267  1539A      3.110193  1540A      3.112489  
    1541A      3.118418  1542A      3.118789  1543A      3.120391  
    1544A      3.124746  1545A      3.129397  1546A      3.130605  
    1547A      3.134406  1548A      3.137557  1549A      3.142102  
    1550A      3.143878  1551A      3.145224  1552A      3.147772  
    1553A      3.148868  1554A      3.152460  1555A      3.154217  
    1556A      3.158537  1557A      3.159667  1558A      3.169798  
    1559A      3.172276  1560A      3.173741  1561A      3.175630  
    1562A      3.177265  1563A      3.178804  1564A      3.180338  
    1565A      3.185902  1566A      3.191124  1567A      3.192195  
    1568A      3.197818  1569A      3.199332  1570A      3.201808  
    1571A      3.202257  1572A      3.202849  1573A      3.208664  
    1574A      3.212277  1575A      3.215416  1576A      3.223494  
    1577A      3.226668  1578A      3.228728  1579A      3.232129  
    1580A      3.233891  1581A      3.238972  1582A      3.240850  
    1583A      3.243080  1584A      3.247712  1585A      3.248673  
    1586A      3.252797  1587A      3.257423  1588A      3.262550  
    1589A      3.265075  1590A      3.266971  1591A      3.268367  
    1592A      3.272700  1593A      3.275411  1594A      3.278560  
    1595A      3.285968  1596A      3.288140  1597A      3.289761  
    1598A      3.290996  1599A      3.296206  1600A      3.298887  
    1601A      3.303903  1602A      3.306396  1603A      3.309932  
    1604A      3.310095  1605A      3.314972  1606A      3.316665  
    1607A      3.319670  1608A      3.321832  1609A      3.324797  
    1610A      3.327152  1611A      3.331015  1612A      3.335811  
    1613A      3.337806  1614A      3.340238  1615A      3.342327  
    1616A      3.345856  1617A      3.353144  1618A      3.354116  
    1619A      3.358444  1620A      3.360784  1621A      3.362149  
    1622A      3.367491  1623A      3.367810  1624A      3.371499  
    1625A      3.373816  1626A      3.376759  1627A      3.380993  
    1628A      3.385732  1629A      3.392075  1630A      3.394736  
    1631A      3.396682  1632A      3.400476  1633A      3.403947  
    1634A      3.412124  1635A      3.416399  1636A      3.417900  
    1637A      3.420262  1638A      3.423832  1639A      3.425919  
    1640A      3.428471  1641A      3.430214  1642A      3.430706  
    1643A      3.436283  1644A      3.438845  1645A      3.444795  
    1646A      3.447177  1647A      3.449965  1648A      3.455646  
    1649A      3.456397  1650A      3.459876  1651A      3.464166  
    1652A      3.466852  1653A      3.469721  1654A      3.470846  
    1655A      3.474365  1656A      3.477947  1657A      3.483477  
    1658A      3.486274  1659A      3.488914  1660A      3.496506  
    1661A      3.497701  1662A      3.498341  1663A      3.502198  
    1664A      3.504897  1665A      3.511238  1666A      3.512423  
    1667A      3.513999  1668A      3.520003  1669A      3.521649  
    1670A      3.525919  1671A      3.529055  1672A      3.529511  
    1673A      3.533826  1674A      3.538205  1675A      3.539720  
    1676A      3.541068  1677A      3.545686  1678A      3.551055  
    1679A      3.556004  1680A      3.560690  1681A      3.562172  
    1682A      3.564421  1683A      3.566390  1684A      3.571526  
    1685A      3.577142  1686A      3.584173  1687A      3.585613  
    1688A      3.591297  1689A      3.595645  1690A      3.598211  
    1691A      3.600251  1692A      3.603218  1693A      3.607159  
    1694A      3.608722  1695A      3.612053  1696A      3.616912  
    1697A      3.618856  1698A      3.623637  1699A      3.627128  
    1700A      3.631800  1701A      3.632391  1702A      3.635961  
    1703A      3.637946  1704A      3.645477  1705A      3.647937  
    1706A      3.653805  1707A      3.657683  1708A      3.658842  
    1709A      3.668407  1710A      3.670187  1711A      3.672679  
    1712A      3.678053  1713A      3.681942  1714A      3.686101  
    1715A      3.687016  1716A      3.691542  1717A      3.694078  
    1718A      3.698471  1719A      3.701758  1720A      3.702764  
    1721A      3.707450  1722A      3.712803  1723A      3.717500  
    1724A      3.717813  1725A      3.721924  1726A      3.723780  
    1727A      3.726974  1728A      3.730448  1729A      3.733697  
    1730A      3.736468  1731A      3.740044  1732A      3.742673  
    1733A      3.748242  1734A      3.749689  1735A      3.752764  
    1736A      3.754836  1737A      3.759740  1738A      3.761051  
    1739A      3.768471  1740A      3.773095  1741A      3.775273  
    1742A      3.780414  1743A      3.782444  1744A      3.784228  
    1745A      3.790545  1746A      3.791394  1747A      3.798433  
    1748A      3.804767  1749A      3.807029  1750A      3.811402  
    1751A      3.812650  1752A      3.814774  1753A      3.822118  
    1754A      3.822345  1755A      3.827729  1756A      3.833686  
    1757A      3.834015  1758A      3.838318  1759A      3.840666  
    1760A      3.845952  1761A      3.847334  1762A      3.851387  
    1763A      3.860010  1764A      3.865212  1765A      3.868129  
    1766A      3.869711  1767A      3.875766  1768A      3.881879  
    1769A      3.882962  1770A      3.893354  1771A      3.895511  
    1772A      3.896379  1773A      3.901601  1774A      3.905802  
    1775A      3.907224  1776A      3.911077  1777A      3.912795  
    1778A      3.916775  1779A      3.920060  1780A      3.922441  
    1781A      3.927013  1782A      3.928078  1783A      3.930093  
    1784A      3.931759  1785A      3.936371  1786A      3.942765  
    1787A      3.944944  1788A      3.946491  1789A      3.952563  
    1790A      3.956347  1791A      3.958063  1792A      3.961375  
    1793A      3.965851  1794A      3.969416  1795A      3.976090  
    1796A      3.980416  1797A      3.985708  1798A      3.986586  
    1799A      3.989807  1800A      3.992100  1801A      3.999071  
    1802A      4.000811  1803A      4.001627  1804A      4.007266  
    1805A      4.010775  1806A      4.014881  1807A      4.018237  
    1808A      4.021735  1809A      4.022071  1810A      4.029984  
    1811A      4.032617  1812A      4.033617  1813A      4.036052  
    1814A      4.038760  1815A      4.044875  1816A      4.047015  
    1817A      4.050320  1818A      4.052412  1819A      4.054926  
    1820A      4.056450  1821A      4.059908  1822A      4.064712  
    1823A      4.066405  1824A      4.071871  1825A      4.076487  
    1826A      4.082634  1827A      4.086108  1828A      4.088091  
    1829A      4.091885  1830A      4.095416  1831A      4.096543  
    1832A      4.099780  1833A      4.106023  1834A      4.107917  
    1835A      4.109663  1836A      4.114477  1837A      4.116254  
    1838A      4.121731  1839A      4.123472  1840A      4.123965  
    1841A      4.128158  1842A      4.130784  1843A      4.133505  
    1844A      4.135346  1845A      4.136965  1846A      4.139279  
    1847A      4.145688  1848A      4.146907  1849A      4.152104  
    1850A      4.155367  1851A      4.162429  1852A      4.166990  
    1853A      4.169328  1854A      4.172200  1855A      4.175697  
    1856A      4.177801  1857A      4.182004  1858A      4.185308  
    1859A      4.190704  1860A      4.194911  1861A      4.199507  
    1862A      4.202595  1863A      4.203210  1864A      4.207506  
    1865A      4.210471  1866A      4.212658  1867A      4.217291  
    1868A      4.221656  1869A      4.223551  1870A      4.225965  
    1871A      4.228446  1872A      4.229066  1873A      4.234903  
    1874A      4.245215  1875A      4.247859  1876A      4.248195  
    1877A      4.250699  1878A      4.252588  1879A      4.254941  
    1880A      4.263631  1881A      4.266085  1882A      4.268325  
    1883A      4.268999  1884A      4.271528  1885A      4.274601  
    1886A      4.278443  1887A      4.281439  1888A      4.284485  
    1889A      4.287890  1890A      4.290372  1891A      4.295782  
    1892A      4.296384  1893A      4.299605  1894A      4.303739  
    1895A      4.308965  1896A      4.315208  1897A      4.317405  
    1898A      4.320373  1899A      4.321331  1900A      4.322800  
    1901A      4.327608  1902A      4.328727  1903A      4.333050  
    1904A      4.337888  1905A      4.340346  1906A      4.344096  
    1907A      4.352064  1908A      4.359199  1909A      4.360432  
    1910A      4.362477  1911A      4.368735  1912A      4.373874  
    1913A      4.375120  1914A      4.378198  1915A      4.380830  
    1916A      4.386010  1917A      4.389845  1918A      4.393362  
    1919A      4.398431  1920A      4.401001  1921A      4.406124  
    1922A      4.410826  1923A      4.414296  1924A      4.417314  
    1925A      4.418915  1926A      4.420669  1927A      4.423942  
    1928A      4.429885  1929A      4.432812  1930A      4.439320  
    1931A      4.442755  1932A      4.445389  1933A      4.447614  
    1934A      4.449605  1935A      4.450688  1936A      4.454818  
    1937A      4.459096  1938A      4.462570  1939A      4.468838  
    1940A      4.473627  1941A      4.477076  1942A      4.477418  
    1943A      4.479754  1944A      4.482566  1945A      4.484716  
    1946A      4.490099  1947A      4.491085  1948A      4.493816  
    1949A      4.496783  1950A      4.503201  1951A      4.507519  
    1952A      4.509109  1953A      4.512633  1954A      4.516190  
    1955A      4.518620  1956A      4.520608  1957A      4.525976  
    1958A      4.530343  1959A      4.530954  1960A      4.536527  
    1961A      4.539161  1962A      4.542710  1963A      4.545093  
    1964A      4.547788  1965A      4.548647  1966A      4.551227  
    1967A      4.554421  1968A      4.559586  1969A      4.562671  
    1970A      4.567662  1971A      4.570974  1972A      4.573394  
    1973A      4.575112  1974A      4.578049  1975A      4.582439  
    1976A      4.586806  1977A      4.589270  1978A      4.591992  
    1979A      4.597758  1980A      4.599411  1981A      4.603282  
    1982A      4.604752  1983A      4.608462  1984A      4.611997  
    1985A      4.613263  1986A      4.616580  1987A      4.619580  
    1988A      4.622854  1989A      4.627158  1990A      4.629083  
    1991A      4.631710  1992A      4.635713  1993A      4.637314  
    1994A      4.639401  1995A      4.643610  1996A      4.645645  
    1997A      4.649097  1998A      4.651767  1999A      4.652129  
    2000A      4.653520  2001A      4.657127  2002A      4.662589  
    2003A      4.663100  2004A      4.665184  2005A      4.668959  
    2006A      4.672570  2007A      4.675605  2008A      4.677241  
    2009A      4.680420  2010A      4.683095  2011A      4.686195  
    2012A      4.687770  2013A      4.695004  2014A      4.697535  
    2015A      4.699400  2016A      4.701652  2017A      4.704283  
    2018A      4.713085  2019A      4.716931  2020A      4.722496  
    2021A      4.723937  2022A      4.728659  2023A      4.730790  
    2024A      4.735684  2025A      4.735975  2026A      4.738599  
    2027A      4.740944  2028A      4.744025  2029A      4.748128  
    2030A      4.748863  2031A      4.749878  2032A      4.753464  
    2033A      4.755414  2034A      4.759823  2035A      4.763733  
    2036A      4.768715  2037A      4.770040  2038A      4.776140  
    2039A      4.777278  2040A      4.782320  2041A      4.782690  
    2042A      4.786180  2043A      4.790041  2044A      4.793450  
    2045A      4.798874  2046A      4.802190  2047A      4.802782  
    2048A      4.807054  2049A      4.809059  2050A      4.815001  
    2051A      4.816518  2052A      4.821430  2053A      4.825116  
    2054A      4.827904  2055A      4.830752  2056A      4.834303  
    2057A      4.835785  2058A      4.842693  2059A      4.845251  
    2060A      4.851219  2061A      4.854820  2062A      4.858411  
    2063A      4.864070  2064A      4.868645  2065A      4.874322  
    2066A      4.874856  2067A      4.876741  2068A      4.880707  
    2069A      4.884242  2070A      4.888937  2071A      4.894837  
    2072A      4.899015  2073A      4.902211  2074A      4.908026  
    2075A      4.911368  2076A      4.915845  2077A      4.917151  
    2078A      4.923359  2079A      4.925848  2080A      4.929428  
    2081A      4.932573  2082A      4.934874  2083A      4.937603  
    2084A      4.942709  2085A      4.944077  2086A      4.949418  
    2087A      4.959650  2088A      4.961503  2089A      4.962914  
    2090A      4.965676  2091A      4.971004  2092A      4.973283  
    2093A      4.981645  2094A      4.982895  2095A      4.984826  
    2096A      4.990791  2097A      4.995788  2098A      4.998221  
    2099A      5.001395  2100A      5.006467  2101A      5.007182  
    2102A      5.010478  2103A      5.014448  2104A      5.018219  
    2105A      5.022580  2106A      5.027488  2107A      5.031566  
    2108A      5.035087  2109A      5.039933  2110A      5.046335  
    2111A      5.052594  2112A      5.053961  2113A      5.054786  
    2114A      5.057670  2115A      5.064292  2116A      5.066880  
    2117A      5.072163  2118A      5.072682  2119A      5.077509  
    2120A      5.080658  2121A      5.086606  2122A      5.093079  
    2123A      5.095171  2124A      5.105386  2125A      5.108159  
    2126A      5.109308  2127A      5.113137  2128A      5.115760  
    2129A      5.119776  2130A      5.126633  2131A      5.129133  
    2132A      5.135005  2133A      5.145852  2134A      5.148894  
    2135A      5.151650  2136A      5.154637  2137A      5.168066  
    2138A      5.170856  2139A      5.172180  2140A      5.178696  
    2141A      5.181540  2142A      5.187138  2143A      5.190332  
    2144A      5.198163  2145A      5.203833  2146A      5.205192  
    2147A      5.207732  2148A      5.216731  2149A      5.220928  
    2150A      5.228210  2151A      5.228933  2152A      5.235919  
    2153A      5.240484  2154A      5.244589  2155A      5.250909  
    2156A      5.253244  2157A      5.260962  2158A      5.269172  
    2159A      5.271736  2160A      5.272158  2161A      5.277414  
    2162A      5.281768  2163A      5.284676  2164A      5.289627  
    2165A      5.292776  2166A      5.295751  2167A      5.299594  
    2168A      5.310119  2169A      5.311632  2170A      5.318864  
    2171A      5.320492  2172A      5.323256  2173A      5.333539  
    2174A      5.347357  2175A      5.353450  2176A      5.358787  
    2177A      5.362170  2178A      5.369488  2179A      5.374879  
    2180A      5.377765  2181A      5.389663  2182A      5.394778  
    2183A      5.398942  2184A      5.403708  2185A      5.409106  
    2186A      5.420535  2187A      5.424415  2188A      5.430348  
    2189A      5.432926  2190A      5.444671  2191A      5.449834  
    2192A      5.453417  2193A      5.456363  2194A      5.462822  
    2195A      5.464248  2196A      5.468851  2197A      5.480827  
    2198A      5.494442  2199A      5.499781  2200A      5.509321  
    2201A      5.516168  2202A      5.518256  2203A      5.527811  
    2204A      5.530794  2205A      5.536641  2206A      5.539725  
    2207A      5.545424  2208A      5.550845  2209A      5.561500  
    2210A      5.579129  2211A      5.587230  2212A      5.589111  
    2213A      5.590570  2214A      5.594725  2215A      5.599566  
    2216A      5.609983  2217A      5.611310  2218A      5.618508  
    2219A      5.620566  2220A      5.627269  2221A      5.631115  
    2222A      5.635174  2223A      5.644207  2224A      5.647725  
    2225A      5.656456  2226A      5.658874  2227A      5.669134  
    2228A      5.672586  2229A      5.682769  2230A      5.689670  
    2231A      5.692217  2232A      5.701904  2233A      5.712540  
    2234A      5.713387  2235A      5.724458  2236A      5.727386  
    2237A      5.731355  2238A      5.736884  2239A      5.742621  
    2240A      5.756899  2241A      5.762451  2242A      5.763584  
    2243A      5.764811  2244A      5.774736  2245A      5.782153  
    2246A      5.785893  2247A      5.789808  2248A      5.804912  
    2249A      5.807790  2250A      5.816479  2251A      5.825526  
    2252A      5.831434  2253A      5.834597  2254A      5.836300  
    2255A      5.838991  2256A      5.843017  2257A      5.849617  
    2258A      5.861834  2259A      5.864307  2260A      5.866368  
    2261A      5.874378  2262A      5.881504  2263A      5.886541  
    2264A      5.894606  2265A      5.901041  2266A      5.918587  
    2267A      5.927440  2268A      5.928556  2269A      5.933452  
    2270A      5.941192  2271A      5.946379  2272A      5.950504  
    2273A      5.968583  2274A      5.977193  2275A      5.985094  
    2276A      5.987565  2277A      5.988271  2278A      5.994972  
    2279A      6.003562  2280A      6.010618  2281A      6.012772  
    2282A      6.022107  2283A      6.026723  2284A      6.041907  
    2285A      6.044831  2286A      6.047131  2287A      6.064077  
    2288A      6.069455  2289A      6.082836  2290A      6.094411  
    2291A      6.100021  2292A      6.122838  2293A      6.126382  
    2294A      6.134185  2295A      6.150484  2296A      6.177472  
    2297A      6.180080  2298A      6.196197  2299A      6.215246  
    2300A      6.224760  2301A      6.236716  2302A      6.244960  
    2303A      6.255373  2304A      6.270230  2305A      6.292452  
    2306A      6.295226  2307A      6.300094  2308A      6.323634  
    2309A      6.326255  2310A      6.340319  2311A      6.344619  
    2312A      6.349650  2313A      6.354105  2314A      6.360284  
    2315A      6.368496  2316A      6.381202  2317A      6.383610  
    2318A      6.388236  2319A      6.407106  2320A      6.416558  
    2321A      6.417712  2322A      6.419810  2323A      6.426446  
    2324A      6.436283  2325A      6.447664  2326A      6.447849  
    2327A      6.463643  2328A      6.471287  2329A      6.474374  
    2330A      6.475480  2331A      6.491942  2332A      6.501842  
    2333A      6.509617  2334A      6.511799  2335A      6.524878  
    2336A      6.530050  2337A      6.540756  2338A      6.547253  
    2339A      6.552523  2340A      6.556914  2341A      6.562924  
    2342A      6.571209  2343A      6.574136  2344A      6.580460  
    2345A      6.587625  2346A      6.591246  2347A      6.607577  
    2348A      6.609079  2349A      6.620875  2350A      6.625208  
    2351A      6.627456  2352A      6.638080  2353A      6.648738  
    2354A      6.655752  2355A      6.664081  2356A      6.668902  
    2357A      6.673797  2358A      6.677527  2359A      6.683664  
    2360A      6.685870  2361A      6.692306  2362A      6.694846  
    2363A      6.705317  2364A      6.709334  2365A      6.725295  
    2366A      6.726549  2367A      6.742032  2368A      6.743374  
    2369A      6.748940  2370A      6.751466  2371A      6.762399  
    2372A      6.764977  2373A      6.776170  2374A      6.780790  
    2375A      6.784846  2376A      6.790748  2377A      6.793541  
    2378A      6.800789  2379A      6.803895  2380A      6.815656  
    2381A      6.818731  2382A      6.827569  2383A      6.830834  
    2384A      6.836142  2385A      6.843681  2386A      6.849537  
    2387A      6.853208  2388A      6.860449  2389A      6.867305  
    2390A      6.873897  2391A      6.876002  2392A      6.884293  
    2393A      6.890406  2394A      6.892617  2395A      6.896360  
    2396A      6.900270  2397A      6.907991  2398A      6.911061  
    2399A      6.914861  2400A      6.917084  2401A      6.919953  
    2402A      6.924599  2403A      6.929382  2404A      6.937933  
    2405A      6.941700  2406A      6.945301  2407A      6.950139  
    2408A      6.958131  2409A      6.959553  2410A      6.961865  
    2411A      6.971183  2412A      6.971984  2413A      6.974092  
    2414A      6.976118  2415A      6.984200  2416A      6.991310  
    2417A      6.992574  2418A      6.995036  2419A      6.999605  
    2420A      7.009575  2421A      7.011640  2422A      7.018394  
    2423A      7.018805  2424A      7.024617  2425A      7.028789  
    2426A      7.034140  2427A      7.038905  2428A      7.041796  
    2429A      7.048529  2430A      7.051181  2431A      7.054891  
    2432A      7.059780  2433A      7.063586  2434A      7.066985  
    2435A      7.068919  2436A      7.081124  2437A      7.086645  
    2438A      7.091154  2439A      7.093529  2440A      7.095179  
    2441A      7.096690  2442A      7.099110  2443A      7.102626  
    2444A      7.111939  2445A      7.113708  2446A      7.119437  
    2447A      7.120402  2448A      7.130633  2449A      7.135193  
    2450A      7.136217  2451A      7.144751  2452A      7.146869  
    2453A      7.148554  2454A      7.155018  2455A      7.160040  
    2456A      7.165948  2457A      7.171949  2458A      7.175205  
    2459A      7.177508  2460A      7.180217  2461A      7.184591  
    2462A      7.194385  2463A      7.197018  2464A      7.199087  
    2465A      7.205483  2466A      7.208283  2467A      7.213039  
    2468A      7.217092  2469A      7.219559  2470A      7.223343  
    2471A      7.223502  2472A      7.231294  2473A      7.237030  
    2474A      7.243976  2475A      7.246992  2476A      7.254253  
    2477A      7.256138  2478A      7.261250  2479A      7.265295  
    2480A      7.265876  2481A      7.272665  2482A      7.275351  
    2483A      7.275756  2484A      7.279548  2485A      7.290438  
    2486A      7.292381  2487A      7.298564  2488A      7.302263  
    2489A      7.308928  2490A      7.316794  2491A      7.320432  
    2492A      7.325218  2493A      7.326949  2494A      7.330010  
    2495A      7.331403  2496A      7.336650  2497A      7.346769  
    2498A      7.348075  2499A      7.354315  2500A      7.356549  
    2501A      7.361186  2502A      7.363074  2503A      7.365282  
    2504A      7.368587  2505A      7.377017  2506A      7.382599  
    2507A      7.384414  2508A      7.388100  2509A      7.393509  
    2510A      7.398918  2511A      7.402089  2512A      7.413947  
    2513A      7.417576  2514A      7.419768  2515A      7.421889  
    2516A      7.427201  2517A      7.434491  2518A      7.435786  
    2519A      7.443453  2520A      7.454933  2521A      7.461957  
    2522A      7.465214  2523A      7.473291  2524A      7.478214  
    2525A      7.479323  2526A      7.481769  2527A      7.491373  
    2528A      7.493263  2529A      7.495873  2530A      7.508316  
    2531A      7.517878  2532A      7.521280  2533A      7.532259  
    2534A      7.535946  2535A      7.540648  2536A      7.552854  
    2537A      7.554492  2538A      7.564313  2539A      7.574592  
    2540A      7.581384  2541A      7.583271  2542A      7.585238  
    2543A      7.589628  2544A      7.595086  2545A      7.599923  
    2546A      7.606621  2547A      7.614622  2548A      7.616368  
    2549A      7.628139  2550A      7.633490  2551A      7.637811  
    2552A      7.641013  2553A      7.643438  2554A      7.652680  
    2555A      7.660815  2556A      7.663039  2557A      7.667398  
    2558A      7.668966  2559A      7.681528  2560A      7.684343  
    2561A      7.689533  2562A      7.693251  2563A      7.700732  
    2564A      7.706462  2565A      7.706978  2566A      7.714672  
    2567A      7.718601  2568A      7.734158  2569A      7.736239  
    2570A      7.738650  2571A      7.746247  2572A      7.755372  
    2573A      7.760375  2574A      7.762072  2575A      7.769633  
    2576A      7.776040  2577A      7.780410  2578A      7.781914  
    2579A      7.786903  2580A      7.787749  2581A      7.798447  
    2582A      7.800844  2583A      7.808826  2584A      7.812167  
    2585A      7.817326  2586A      7.821692  2587A      7.831913  
    2588A      7.835507  2589A      7.841629  2590A      7.846086  
    2591A      7.849254  2592A      7.854364  2593A      7.860559  
    2594A      7.866979  2595A      7.869493  2596A      7.870817  
    2597A      7.875899  2598A      7.880530  2599A      7.881631  
    2600A      7.885821  2601A      7.898566  2602A      7.899401  
    2603A      7.904432  2604A      7.913009  2605A      7.918664  
    2606A      7.921907  2607A      7.923713  2608A      7.929716  
    2609A      7.935512  2610A      7.952672  2611A      7.953929  
    2612A      7.958895  2613A      7.964823  2614A      7.968388  
    2615A      7.969760  2616A      7.976367  2617A      7.988351  
    2618A      7.994070  2619A      7.995605  2620A      8.006944  
    2621A      8.012711  2622A      8.014598  2623A      8.021859  
    2624A      8.028991  2625A      8.038662  2626A      8.043336  
    2627A      8.047778  2628A      8.053800  2629A      8.054825  
    2630A      8.056878  2631A      8.068077  2632A      8.072976  
    2633A      8.078159  2634A      8.081958  2635A      8.085845  
    2636A      8.094312  2637A      8.097247  2638A      8.108621  
    2639A      8.113650  2640A      8.120123  2641A      8.129967  
    2642A      8.138625  2643A      8.151498  2644A      8.153319  
    2645A      8.158496  2646A      8.160591  2647A      8.167487  
    2648A      8.172138  2649A      8.179122  2650A      8.181660  
    2651A      8.182078  2652A      8.194630  2653A      8.204212  
    2654A      8.210001  2655A      8.220236  2656A      8.220552  
    2657A      8.223150  2658A      8.227734  2659A      8.235144  
    2660A      8.248276  2661A      8.251656  2662A      8.254313  
    2663A      8.259650  2664A      8.261127  2665A      8.271689  
    2666A      8.275631  2667A      8.280384  2668A      8.280768  
    2669A      8.285432  2670A      8.287274  2671A      8.291194  
    2672A      8.297282  2673A      8.305053  2674A      8.312205  
    2675A      8.316541  2676A      8.318455  2677A      8.319160  
    2678A      8.323054  2679A      8.335808  2680A      8.339087  
    2681A      8.346960  2682A      8.354462  2683A      8.364999  
    2684A      8.371400  2685A      8.376074  2686A      8.385268  
    2687A      8.388445  2688A      8.390673  2689A      8.399093  
    2690A      8.414003  2691A      8.429635  2692A      8.432110  
    2693A      8.439133  2694A      8.446139  2695A      8.452899  
    2696A      8.460315  2697A      8.462787  2698A      8.471379  
    2699A      8.473809  2700A      8.476177  2701A      8.485798  
    2702A      8.489252  2703A      8.491037  2704A      8.497433  
    2705A      8.504696  2706A      8.510630  2707A      8.515729  
    2708A      8.525794  2709A      8.534725  2710A      8.541424  
    2711A      8.547334  2712A      8.554130  2713A      8.558447  
    2714A      8.560942  2715A      8.564688  2716A      8.573587  
    2717A      8.578020  2718A      8.591547  2719A      8.593160  
    2720A      8.600628  2721A      8.603513  2722A      8.616571  
    2723A      8.617525  2724A      8.619234  2725A      8.622846  
    2726A      8.628187  2727A      8.638090  2728A      8.647357  
    2729A      8.650395  2730A      8.660944  2731A      8.664788  
    2732A      8.665849  2733A      8.672901  2734A      8.677295  
    2735A      8.679238  2736A      8.684154  2737A      8.689708  
    2738A      8.695673  2739A      8.698094  2740A      8.708307  
    2741A      8.709447  2742A      8.717711  2743A      8.719006  
    2744A      8.721429  2745A      8.727719  2746A      8.741285  
    2747A      8.742452  2748A      8.746089  2749A      8.752943  
    2750A      8.765069  2751A      8.767121  2752A      8.769763  
    2753A      8.774351  2754A      8.781036  2755A      8.782134  
    2756A      8.785537  2757A      8.790710  2758A      8.796953  
    2759A      8.804587  2760A      8.805057  2761A      8.810125  
    2762A      8.813937  2763A      8.817234  2764A      8.822764  
    2765A      8.825439  2766A      8.832262  2767A      8.835089  
    2768A      8.839890  2769A      8.843219  2770A      8.856191  
    2771A      8.858773  2772A      8.861614  2773A      8.866429  
    2774A      8.872731  2775A      8.880822  2776A      8.890203  
    2777A      8.897613  2778A      8.904753  2779A      8.913507  
    2780A      8.914262  2781A      8.916710  2782A      8.922568  
    2783A      8.924072  2784A      8.926999  2785A      8.936070  
    2786A      8.944611  2787A      8.946501  2788A      8.955167  
    2789A      8.955557  2790A      8.964591  2791A      8.977188  
    2792A      8.986095  2793A      8.987677  2794A      8.992073  
    2795A      8.997019  2796A      9.000833  2797A      9.006862  
    2798A      9.009709  2799A      9.010785  2800A      9.021684  
    2801A      9.030295  2802A      9.032111  2803A      9.038329  
    2804A      9.048997  2805A      9.051225  2806A      9.053049  
    2807A      9.066153  2808A      9.067125  2809A      9.076665  
    2810A      9.081731  2811A      9.086827  2812A      9.087261  
    2813A      9.092018  2814A      9.093599  2815A      9.113433  
    2816A      9.122273  2817A      9.124911  2818A      9.134317  
    2819A      9.136768  2820A      9.141356  2821A      9.144877  
    2822A      9.147547  2823A      9.155090  2824A      9.158825  
    2825A      9.177625  2826A      9.185346  2827A      9.195307  
    2828A      9.201041  2829A      9.201898  2830A      9.208112  
    2831A      9.213682  2832A      9.219047  2833A      9.224363  
    2834A      9.227731  2835A      9.231081  2836A      9.240936  
    2837A      9.244471  2838A      9.254966  2839A      9.259497  
    2840A      9.269910  2841A      9.285674  2842A      9.290627  
    2843A      9.295566  2844A      9.299581  2845A      9.306143  
    2846A      9.313649  2847A      9.316514  2848A      9.322188  
    2849A      9.328353  2850A      9.335621  2851A      9.339966  
    2852A      9.346894  2853A      9.366283  2854A      9.368495  
    2855A      9.383581  2856A      9.389150  2857A      9.403346  
    2858A      9.403933  2859A      9.407323  2860A      9.408956  
    2861A      9.422405  2862A      9.428477  2863A      9.431114  
    2864A      9.438650  2865A      9.440867  2866A      9.445953  
    2867A      9.448874  2868A      9.456164  2869A      9.464063  
    2870A      9.468409  2871A      9.471023  2872A      9.481673  
    2873A      9.490304  2874A      9.498649  2875A      9.504008  
    2876A      9.505494  2877A      9.511468  2878A      9.513472  
    2879A      9.528563  2880A      9.537443  2881A      9.545414  
    2882A      9.548287  2883A      9.551037  2884A      9.556444  
    2885A      9.557071  2886A      9.558886  2887A      9.567394  
    2888A      9.581919  2889A      9.592175  2890A      9.594281  
    2891A      9.599808  2892A      9.609058  2893A      9.618334  
    2894A      9.619764  2895A      9.627148  2896A      9.631979  
    2897A      9.639786  2898A      9.646095  2899A      9.653256  
    2900A      9.659965  2901A      9.672558  2902A      9.673019  
    2903A      9.681585  2904A      9.694468  2905A      9.703222  
    2906A      9.707289  2907A      9.723828  2908A      9.726978  
    2909A      9.727788  2910A      9.737304  2911A      9.738915  
    2912A      9.743058  2913A      9.745445  2914A      9.754304  
    2915A      9.762834  2916A      9.763625  2917A      9.765989  
    2918A      9.774285  2919A      9.782728  2920A      9.790563  
    2921A      9.792694  2922A      9.800345  2923A      9.809395  
    2924A      9.810644  2925A      9.815602  2926A      9.817749  
    2927A      9.824792  2928A      9.827129  2929A      9.828352  
    2930A      9.841300  2931A      9.852670  2932A      9.853796  
    2933A      9.858086  2934A      9.862328  2935A      9.865141  
    2936A      9.870807  2937A      9.875803  2938A      9.884896  
    2939A      9.893426  2940A      9.896971  2941A      9.899664  
    2942A      9.903306  2943A      9.907157  2944A      9.914148  
    2945A      9.915589  2946A      9.920659  2947A      9.921408  
    2948A      9.924948  2949A      9.934392  2950A      9.938023  
    2951A      9.943768  2952A      9.948716  2953A      9.961187  
    2954A      9.964487  2955A      9.973917  2956A      9.991719  
    2957A     10.000450  2958A     10.012573  2959A     10.024626  
    2960A     10.042495  2961A     10.045348  2962A     10.047470  
    2963A     10.048455  2964A     10.060623  2965A     10.067812  
    2966A     10.071358  2967A     10.079790  2968A     10.090104  
    2969A     10.093746  2970A     10.108443  2971A     10.112968  
    2972A     10.134120  2973A     10.138417  2974A     10.145498  
    2975A     10.148329  2976A     10.149416  2977A     10.152442  
    2978A     10.159525  2979A     10.169872  2980A     10.172177  
    2981A     10.178861  2982A     10.182435  2983A     10.187608  
    2984A     10.199226  2985A     10.200101  2986A     10.203129  
    2987A     10.211636  2988A     10.212971  2989A     10.220514  
    2990A     10.228618  2991A     10.233410  2992A     10.235945  
    2993A     10.248529  2994A     10.251868  2995A     10.263120  
    2996A     10.265475  2997A     10.271362  2998A     10.272634  
    2999A     10.281018  3000A     10.288744  3001A     10.289555  
    3002A     10.296058  3003A     10.298147  3004A     10.299080  
    3005A     10.306294  3006A     10.311824  3007A     10.315334  
    3008A     10.316960  3009A     10.328672  3010A     10.331295  
    3011A     10.337465  3012A     10.340261  3013A     10.343321  
    3014A     10.350366  3015A     10.358411  3016A     10.365822  
    3017A     10.368467  3018A     10.375964  3019A     10.379870  
    3020A     10.398262  3021A     10.406945  3022A     10.415602  
    3023A     10.419776  3024A     10.423333  3025A     10.425679  
    3026A     10.433795  3027A     10.442024  3028A     10.445679  
    3029A     10.453507  3030A     10.458182  3031A     10.462300  
    3032A     10.466732  3033A     10.475604  3034A     10.478763  
    3035A     10.491837  3036A     10.501357  3037A     10.513673  
    3038A     10.526012  3039A     10.536584  3040A     10.569590  
    3041A     10.587327  3042A     10.592225  3043A     10.600953  
    3044A     10.606971  3045A     10.610385  3046A     10.622675  
    3047A     10.653188  3048A     10.661911  3049A     10.672951  
    3050A     10.699369  3051A     10.707130  3052A     10.710454  
    3053A     10.737682  3054A     10.739114  3055A     10.754796  
    3056A     10.758495  3057A     10.763294  3058A     10.767756  
    3059A     10.782400  3060A     10.790755  3061A     10.796956  
    3062A     10.817400  3063A     10.820276  3064A     10.834173  
    3065A     10.838942  3066A     10.848995  3067A     10.852490  
    3068A     10.862493  3069A     10.875478  3070A     10.876989  
    3071A     10.881765  3072A     10.885741  3073A     10.892641  
    3074A     10.895535  3075A     10.899163  3076A     10.907838  
    3077A     10.909908  3078A     10.919978  3079A     10.949992  
    3080A     10.954433  3081A     10.959816  3082A     10.967605  
    3083A     10.980584  3084A     10.996210  3085A     11.004253  
    3086A     11.010289  3087A     11.011288  3088A     11.016517  
    3089A     11.019717  3090A     11.037927  3091A     11.045790  
    3092A     11.053282  3093A     11.055545  3094A     11.066488  
    3095A     11.069028  3096A     11.074421  3097A     11.079984  
    3098A     11.084653  3099A     11.092745  3100A     11.101769  
    3101A     11.109642  3102A     11.110685  3103A     11.122366  
    3104A     11.131060  3105A     11.133197  3106A     11.141349  
    3107A     11.150253  3108A     11.152021  3109A     11.163719  
    3110A     11.168314  3111A     11.175943  3112A     11.179415  
    3113A     11.196479  3114A     11.199297  3115A     11.213119  
    3116A     11.216716  3117A     11.220270  3118A     11.225221  
    3119A     11.230906  3120A     11.243564  3121A     11.249292  
    3122A     11.249615  3123A     11.251577  3124A     11.256545  
    3125A     11.259422  3126A     11.268482  3127A     11.275647  
    3128A     11.280265  3129A     11.286428  3130A     11.293612  
    3131A     11.317284  3132A     11.321182  3133A     11.328112  
    3134A     11.350781  3135A     11.358510  3136A     11.365886  
    3137A     11.376118  3138A     11.386432  3139A     11.392992  
    3140A     11.407491  3141A     11.409514  3142A     11.419250  
    3143A     11.422432  3144A     11.430464  3145A     11.444479  
    3146A     11.456470  3147A     11.463698  3148A     11.469530  
    3149A     11.472363  3150A     11.497984  3151A     11.502458  
    3152A     11.517538  3153A     11.525789  3154A     11.526753  
    3155A     11.543732  3156A     11.545212  3157A     11.548998  
    3158A     11.567907  3159A     11.575168  3160A     11.580460  
    3161A     11.600905  3162A     11.606430  3163A     11.609344  
    3164A     11.612958  3165A     11.619121  3166A     11.626518  
    3167A     11.635127  3168A     11.639473  3169A     11.645761  
    3170A     11.654459  3171A     11.655498  3172A     11.662183  
    3173A     11.668986  3174A     11.678074  3175A     11.683224  
    3176A     11.689319  3177A     11.696786  3178A     11.709255  
    3179A     11.714007  3180A     11.715532  3181A     11.718613  
    3182A     11.744212  3183A     11.753558  3184A     11.764131  
    3185A     11.787684  3186A     11.791429  3187A     11.794360  
    3188A     11.798099  3189A     11.805692  3190A     11.822978  
    3191A     11.863170  3192A     11.872430  3193A     11.890076  
    3194A     11.899968  3195A     11.902712  3196A     11.916234  
    3197A     11.929877  3198A     11.930912  3199A     11.933534  
    3200A     11.936942  3201A     11.949514  3202A     11.955860  
    3203A     11.957053  3204A     11.965251  3205A     11.970720  
    3206A     11.979367  3207A     11.998451  3208A     12.007598  
    3209A     12.011403  3210A     12.022575  3211A     12.042157  
    3212A     12.044415  3213A     12.069460  3214A     12.081625  
    3215A     12.101957  3216A     12.112729  3217A     12.119652  
    3218A     12.163589  3219A     12.176356  3220A     12.177273  
    3221A     12.182117  3222A     12.196116  3223A     12.209047  
    3224A     12.225463  3225A     12.234160  3226A     12.235330  
    3227A     12.236323  3228A     12.246092  3229A     12.251581  
    3230A     12.265152  3231A     12.266691  3232A     12.270399  
    3233A     12.285024  3234A     12.291634  3235A     12.295671  
    3236A     12.314390  3237A     12.317223  3238A     12.319936  
    3239A     12.335332  3240A     12.348040  3241A     12.349786  
    3242A     12.352925  3243A     12.363461  3244A     12.376026  
    3245A     12.383856  3246A     12.391267  3247A     12.400325  
    3248A     12.410177  3249A     12.418808  3250A     12.420064  
    3251A     12.435269  3252A     12.446541  3253A     12.448572  
    3254A     12.473205  3255A     12.484652  3256A     12.502329  
    3257A     12.528773  3258A     12.550399  3259A     12.562228  
    3260A     12.590162  3261A     12.601178  3262A     12.605737  
    3263A     12.615839  3264A     12.674250  3265A     12.683666  
    3266A     12.736458  3267A     12.747005  3268A     12.759498  
    3269A     12.776168  3270A     12.778939  3271A     12.796812  
    3272A     12.804830  3273A     12.807511  3274A     12.820329  
    3275A     12.832940  3276A     12.842216  3277A     12.850477  
    3278A     12.862122  3279A     12.871437  3280A     12.881255  
    3281A     12.890274  3282A     12.932373  3283A     12.952522  
    3284A     12.969281  3285A     12.971425  3286A     12.978689  
    3287A     12.992991  3288A     12.998051  3289A     13.012312  
    3290A     13.013980  3291A     13.035559  3292A     13.047172  
    3293A     13.050701  3294A     13.072888  3295A     13.077302  
    3296A     13.087414  3297A     13.092975  3298A     13.099076  
    3299A     13.101358  3300A     13.115099  3301A     13.128303  
    3302A     13.131506  3303A     13.132127  3304A     13.144519  
    3305A     13.162453  3306A     13.175241  3307A     13.199009  
    3308A     13.209267  3309A     13.241652  3310A     13.258232  
    3311A     13.281602  3312A     13.310751  3313A     13.317596  
    3314A     13.350475  3315A     13.351047  3316A     13.363097  
    3317A     13.373747  3318A     13.390305  3319A     13.397151  
    3320A     13.400691  3321A     13.416167  3322A     13.420616  
    3323A     13.429950  3324A     13.431749  3325A     13.438305  
    3326A     13.448130  3327A     13.461386  3328A     13.465982  
    3329A     13.470864  3330A     13.487793  3331A     13.508526  
    3332A     13.514042  3333A     13.523100  3334A     13.537210  
    3335A     13.545596  3336A     13.552110  3337A     13.553868  
    3338A     13.556391  3339A     13.584177  3340A     13.603429  
    3341A     13.605440  3342A     13.620648  3343A     13.657217  
    3344A     13.688924  3345A     13.693078  3346A     13.719821  
    3347A     13.755499  3348A     13.759493  3349A     13.769762  
    3350A     13.783501  3351A     13.811085  3352A     13.831074  
    3353A     13.872484  3354A     13.888422  3355A     13.908467  
    3356A     13.912622  3357A     13.964167  3358A     14.048376  
    3359A     14.055085  3360A     14.069866  3361A     14.071121  
    3362A     14.081743  3363A     14.121560  3364A     14.150450  
    3365A     14.153300  3366A     14.192811  3367A     14.211981  
    3368A     14.269078  3369A     14.350328  3370A     14.385891  
    3371A     14.401632  3372A     14.522503  3373A     14.541004  
    3374A     14.590224  3375A     14.625638  3376A     14.634773  
    3377A     14.649666  3378A     14.662321  3379A     14.666541  
    3380A     14.674753  3381A     14.699219  3382A     14.706535  
    3383A     14.796618  3384A     14.897964  3385A     15.021540  
    3386A     15.070482  3387A     15.077191  3388A     15.093756  
    3389A     15.128382  3390A     15.167579  3391A     15.179876  
    3392A     15.203162  3393A     15.207492  3394A     15.250301  
    3395A     15.287633  3396A     15.369093  3397A     15.400049  
    3398A     15.415456  3399A     15.445513  3400A     15.448531  
    3401A     15.526375  3402A     15.555774  3403A     15.566551  
    3404A     15.594874  3405A     15.597754  3406A     17.405234  
    3407A     17.540365  3408A     17.686771  3409A     26.789223  
    3410A     26.882794  3411A     27.004193  3412A     27.026029  
    3413A     27.256758  3414A     27.415213  3415A     27.447769  
    3416A     28.078067  3417A     28.094079  3418A     28.153750  
    3419A     28.460238  3420A     28.478817  3421A     28.514339  
    3422A     28.702565  3423A     36.094784  3424A     36.179176  
    3425A     36.359147  3426A     36.412970  3427A     44.444857  
    3428A     44.450094  3429A     44.651850  3430A     44.660388  
    3431A     44.711105  3432A     45.037814  3433A     45.118445  
    3434A     45.966356  3435A     46.323138  3436A     46.616615  

    Final Occupation by Irrep:
              A 
    DOCC [   109 ]

  Energy converged.

  @DF-RHF Final Energy: -1512.25036672417741

   => Energetics <=

    Nuclear Repulsion Energy =           2605.3050234228217050
    One-Electron Energy =               -7258.0811577579734148
    Two-Electron Energy =                3140.5257676109745262
    Total Energy =                      -1512.2503667241776384



Properties will be evaluated at   0.000000,   0.000000,   0.000000 Bohr

Properties computed using the SCF density matrix

  Nuclear Dipole Moment: (a.u.)
     X:     3.6080      Y:     8.5823      Z:    -2.3649

  Electronic Dipole Moment: (a.u.)
     X:    -2.9397      Y:    -7.9331      Z:     3.6148

  Dipole Moment: (a.u.)
     X:     0.6682      Y:     0.6492      Z:     1.2500     Total:     1.5589

  Dipole Moment: (Debye)
     X:     1.6985      Y:     1.6500      Z:     3.1771     Total:     3.9625


*** tstop() called on hex15 at Wed Mar  7 14:11:19 2018
Module time:
	user time   =   22438.72 seconds =     373.98 minutes
	system time =    1538.26 seconds =      25.64 minutes
	total time  =      15506 seconds =     258.43 minutes
Total time:
	user time   =   22438.72 seconds =     373.98 minutes
	system time =    1538.26 seconds =      25.64 minutes
	total time  =      15506 seconds =     258.43 minutes

*** Psi4 exiting successfully. Buy a developer a beer!
