
    -----------------------------------------------------------------------
          Psi4: An Open-Source Ab Initio Electronic Structure Package
                               Psi4 1.2a1.dev875 

                         Git: Rev {symm_JK} 0ea9481 dirty


    R. M. Parrish, L. A. Burns, D. G. A. Smith, A. C. Simmonett,
    A. E. DePrince III, E. G. Hohenstein, U. Bozkaya, A. Yu. Sokolov,
    R. Di Remigio, R. M. Richard, J. F. Gonthier, A. M. James,
    H. R. McAlexander, A. Kumar, M. Saitow, X. Wang, B. P. Pritchard,
    P. Verma, H. F. Schaefer III, K. Patkowski, R. A. King, E. F. Valeev,
    F. A. Evangelista, J. M. Turney, T. D. Crawford, and C. D. Sherrill,
    J. Chem. Theory Comput. 13(7) pp 3185--3197 (2017).
    (doi: 10.1021/acs.jctc.7b00174)

    -----------------------------------------------------------------------


    Psi4 started on: Sunday, 04 March 2018 12:17PM

    Process ID:  10019
    PSIDATADIR: /theoryfs2/ds/schieber/Gits/mspsi4/objdir3/stage/usr/local/psi4/share/psi4
    Memory:     500.0 MiB
    Threads:    6
    
  ==> Input File <==

--------------------------------------------------------------------------
memory 60 Gb

molecule protein_103 {
0 1
 N   18.626  30.444   6.627
 C   17.853  29.516   5.837
 C   16.945  30.292   4.886
 O   15.843  30.678   5.237
 C   17.047  28.642   6.811
 C   16.316  27.513   6.146
 O   16.236  27.458   4.905
 O   15.762  26.696   6.882
 N    4.567  24.042   8.795
 C    4.886  22.777   8.145
 C    6.265  22.720   7.521
 O    6.723  23.689   6.900
 N   17.407  27.054  -1.437
 C   17.227  26.751  -0.026
 C   18.555  26.446   0.653
 O   19.003  25.309   0.692
 C   16.258  25.572   0.084
 C   15.759  25.336   1.493
 O   16.399  25.780   2.453
 O   14.731  24.675   1.645
 N   19.106  26.199   3.688
 C   18.957  25.372   4.876
 C   18.845  23.903   4.520
 O   18.660  23.054   5.417
 N   20.536  20.559   2.918
 C   21.779  19.912   2.496
 C   21.693  19.374   1.107
 O   22.642  19.502   0.361
 C   22.169  18.827   3.447
 C   22.272  19.337   4.844
 O   22.714  20.482   5.029
 O   21.836  18.647   5.778
 N   20.524  18.868   0.719
 C   20.355  18.227  -0.584
 C   19.212  18.807  -1.371
 O   18.383  19.523  -0.846
 C   20.084  16.745  -0.413
 C   21.023  16.088   0.586
 O   22.233  15.970   0.265
 O   20.531  15.682   1.672
 N   15.750  18.102  -3.440
 C   14.628  17.162  -3.514
 C   13.618  17.726  -4.436
 O   13.169  18.861  -4.263
 C   13.781  17.005  -2.245
 C   13.297  15.592  -2.184
 C   14.518  17.455  -1.007
 N   13.583  16.896   8.239
 C   13.484  18.319   8.459
 C   12.647  18.565   9.672
 O   12.880  17.976  10.721
 H   18.180  30.990   7.295
 H   18.510  28.835   5.249
 H   16.336  29.276   7.377
 H   17.778  28.186   7.516
 H   15.845  26.702   7.843
 H    4.436  24.871   8.195
 H    4.744  21.930   8.802
 H    4.143  22.632   7.335
 H   17.860  26.421  -2.023
 H   16.724  27.595   0.500
 H   16.724  24.663  -0.337
 H   15.363  25.845  -0.519
 H   16.737  25.171   3.109
 H   18.314  26.771   3.377
 H   18.015  25.631   5.391
 H   19.792  25.567   5.577
 H   19.976  20.073   3.597
 H   22.602  20.664   2.537
 H   23.175  18.459   3.144
 H   21.465  17.966   3.392
 H   21.492  17.752   5.634
 H   19.735  18.818   1.381
 H   21.291  18.340  -1.170
 H   20.109  16.188  -1.374
 H   19.050  16.648  -0.012
 H   19.629  15.364   1.734
 H   15.541  19.065  -3.172
 H   15.011  16.180  -3.836
 H   12.886  17.674  -2.203
 H   14.115  14.872  -2.046
 H   12.706  15.323  -3.086
 H   12.624  15.478  -1.307
 H   15.405  16.799  -0.936
 H   13.886  17.316  -0.103
 H   14.813  18.522  -1.068
 H   12.728  16.393   8.153
 H   13.053  18.790   7.555
 H   14.480  18.781   8.624
 H   19.646  30.419   6.619
 H   17.295  30.415   3.850
 H    4.454  24.117   9.806
 H    6.887  21.864   7.822
 H   16.947  27.858  -1.864
 H   19.060  27.284   1.155
 H   20.034  26.347   3.290
 H   18.824  23.654   3.449
 H   20.197  21.395   2.443
 H   19.162  18.493  -2.424
 H   16.715  17.829  -3.624
 H   13.269  17.060  -5.239
 H   14.494  16.447   8.142
 H   11.982  19.438   9.599
}

set {
basis cc-pvdz
scf_type df
guess sad
DF_SCF_TYPE SYMM_JK
}

energy('HF')
--------------------------------------------------------------------------

  Memory set to  55.879 GiB by Python driver.

*** tstart() called on hex15
*** at Sun Mar  4 12:17:44 2018

   => Loading Basis Set <=

    Name: CC-PVDZ
    Role: ORBITAL
    Keyword: BASIS
    atoms 1, 9, 13, 21, 25, 33, 41, 48                                                          entry N          line   168 file /theoryfs2/ds/schieber/Gits/mspsi4/objdir3/stage/usr/local/psi4/share/psi4/basis/cc-pvdz.gbs 
    atoms 2-3, 5-6, 10-11, 14-15, 17-18, 22-23, 26-27, 29-30, 34-35, 37-38, 42-43, 45-47, 49-50 entry C          line   138 file /theoryfs2/ds/schieber/Gits/mspsi4/objdir3/stage/usr/local/psi4/share/psi4/basis/cc-pvdz.gbs 
    atoms 4, 7-8, 12, 16, 19-20, 24, 28, 31-32, 36, 39-40, 44, 51                               entry O          line   198 file /theoryfs2/ds/schieber/Gits/mspsi4/objdir3/stage/usr/local/psi4/share/psi4/basis/cc-pvdz.gbs 
    atoms 52-103                                                                                entry H          line    22 file /theoryfs2/ds/schieber/Gits/mspsi4/objdir3/stage/usr/local/psi4/share/psi4/basis/cc-pvdz.gbs 


         ---------------------------------------------------------
                                   SCF
            by Justin Turney, Rob Parrish, Andy Simmonett
                             and Daniel Smith
                              RHF Reference
                        6 Threads,  57220 MiB Core
         ---------------------------------------------------------

  ==> Geometry <==

    Molecular point group: c1
    Full point group: C1

    Geometry (in Angstrom), charge = 0, multiplicity = 1:

       Center              X                  Y                   Z               Mass       
    ------------   -----------------  -----------------  -----------------  -----------------
           N          1.834525169641     8.467048519537     3.745546000143    14.003074004780
           C          1.061525169641     7.539048519537     2.955546000143    12.000000000000
           C          0.153525169641     8.315048519537     2.004546000143    12.000000000000
           O         -0.948474830359     8.701048519537     2.355546000143    15.994914619560
           C          0.255525169641     6.665048519537     3.929546000143    12.000000000000
           C         -0.475474830359     5.536048519537     3.264546000143    12.000000000000
           O         -0.555474830359     5.481048519537     2.023546000143    15.994914619560
           O         -1.029474830359     4.719048519537     4.000546000143    15.994914619560
           N        -12.224474830359     2.065048519537     5.913546000143    14.003074004780
           C        -11.905474830359     0.800048519537     5.263546000143    12.000000000000
           C        -10.526474830359     0.743048519537     4.639546000143    12.000000000000
           O        -10.068474830359     1.712048519537     4.018546000143    15.994914619560
           N          0.615525169641     5.077048519537    -4.318453999857    14.003074004780
           C          0.435525169641     4.774048519537    -2.907453999857    12.000000000000
           C          1.763525169641     4.469048519537    -2.228453999857    12.000000000000
           O          2.211525169641     3.332048519537    -2.189453999857    15.994914619560
           C         -0.533474830359     3.595048519537    -2.797453999857    12.000000000000
           C         -1.032474830359     3.359048519537    -1.388453999857    12.000000000000
           O         -0.392474830359     3.803048519537    -0.428453999857    15.994914619560
           O         -2.060474830359     2.698048519537    -1.236453999857    15.994914619560
           N          2.314525169641     4.222048519537     0.806546000143    14.003074004780
           C          2.165525169641     3.395048519537     1.994546000143    12.000000000000
           C          2.053525169641     1.926048519537     1.638546000143    12.000000000000
           O          1.868525169641     1.077048519537     2.535546000143    15.994914619560
           N          3.744525169641    -1.417951480463     0.036546000143    14.003074004780
           C          4.987525169641    -2.064951480463    -0.385453999857    12.000000000000
           C          4.901525169641    -2.602951480463    -1.774453999857    12.000000000000
           O          5.850525169641    -2.474951480463    -2.520453999857    15.994914619560
           C          5.377525169641    -3.149951480463     0.565546000143    12.000000000000
           C          5.480525169641    -2.639951480463     1.962546000143    12.000000000000
           O          5.922525169641    -1.494951480463     2.147546000143    15.994914619560
           O          5.044525169641    -3.329951480463     2.896546000143    15.994914619560
           N          3.732525169641    -3.108951480463    -2.162453999857    14.003074004780
           C          3.563525169641    -3.749951480463    -3.465453999857    12.000000000000
           C          2.420525169641    -3.169951480463    -4.252453999857    12.000000000000
           O          1.591525169641    -2.453951480463    -3.727453999857    15.994914619560
           C          3.292525169641    -5.231951480463    -3.294453999857    12.000000000000
           C          4.231525169641    -5.888951480463    -2.295453999857    12.000000000000
           O          5.441525169641    -6.006951480463    -2.616453999857    15.994914619560
           O          3.739525169641    -6.294951480463    -1.209453999857    15.994914619560
           N         -1.041474830359    -3.874951480463    -6.321453999857    14.003074004780
           C         -2.163474830359    -4.814951480463    -6.395453999857    12.000000000000
           C         -3.173474830359    -4.250951480463    -7.317453999857    12.000000000000
           O         -3.622474830359    -3.115951480463    -7.144453999857    15.994914619560
           C         -3.010474830359    -4.971951480463    -5.126453999857    12.000000000000
           C         -3.494474830359    -6.384951480463    -5.065453999857    12.000000000000
           C         -2.273474830359    -4.521951480463    -3.888453999857    12.000000000000
           N         -3.208474830359    -5.080951480463     5.357546000143    14.003074004780
           C         -3.307474830359    -3.657951480463     5.577546000143    12.000000000000
           C         -4.144474830359    -3.411951480463     6.790546000143    12.000000000000
           O         -3.911474830359    -4.000951480463     7.839546000143    15.994914619560
           H          1.388525169641     9.013048519537     4.413546000143     1.007825032070
           H          1.718525169641     6.858048519537     2.367546000143     1.007825032070
           H         -0.455474830359     7.299048519537     4.495546000143     1.007825032070
           H          0.986525169641     6.209048519537     4.634546000143     1.007825032070
           H         -0.946474830359     4.725048519537     4.961546000143     1.007825032070
           H        -12.355474830359     2.894048519537     5.313546000143     1.007825032070
           H        -12.047474830359    -0.046951480463     5.920546000143     1.007825032070
           H        -12.648474830359     0.655048519537     4.453546000143     1.007825032070
           H          1.068525169641     4.444048519537    -4.904453999857     1.007825032070
           H         -0.067474830359     5.618048519537    -2.381453999857     1.007825032070
           H         -0.067474830359     2.686048519537    -3.218453999857     1.007825032070
           H         -1.428474830359     3.868048519537    -3.400453999857     1.007825032070
           H         -0.054474830359     3.194048519537     0.227546000143     1.007825032070
           H          1.522525169641     4.794048519537     0.495546000143     1.007825032070
           H          1.223525169641     3.654048519537     2.509546000143     1.007825032070
           H          3.000525169641     3.590048519537     2.695546000143     1.007825032070
           H          3.184525169641    -1.903951480463     0.715546000143     1.007825032070
           H          5.810525169641    -1.312951480463    -0.344453999857     1.007825032070
           H          6.383525169641    -3.517951480463     0.262546000143     1.007825032070
           H          4.673525169641    -4.010951480463     0.510546000143     1.007825032070
           H          4.700525169641    -4.224951480463     2.752546000143     1.007825032070
           H          2.943525169641    -3.158951480463    -1.500453999857     1.007825032070
           H          4.499525169641    -3.636951480463    -4.051453999857     1.007825032070
           H          3.317525169641    -5.788951480463    -4.255453999857     1.007825032070
           H          2.258525169641    -5.328951480463    -2.893453999857     1.007825032070
           H          2.837525169641    -6.612951480463    -1.147453999857     1.007825032070
           H         -1.250474830359    -2.911951480463    -6.053453999857     1.007825032070
           H         -1.780474830359    -5.796951480463    -6.717453999857     1.007825032070
           H         -3.905474830359    -4.302951480463    -5.084453999857     1.007825032070
           H         -2.676474830359    -7.104951480463    -4.927453999857     1.007825032070
           H         -4.085474830359    -6.653951480463    -5.967453999857     1.007825032070
           H         -4.167474830359    -6.498951480463    -4.188453999857     1.007825032070
           H         -1.386474830359    -5.177951480463    -3.817453999857     1.007825032070
           H         -2.905474830359    -4.660951480463    -2.984453999857     1.007825032070
           H         -1.978474830359    -3.454951480463    -3.949453999857     1.007825032070
           H         -4.063474830359    -5.583951480463     5.271546000143     1.007825032070
           H         -3.738474830359    -3.186951480463     4.673546000143     1.007825032070
           H         -2.311474830359    -3.195951480463     5.742546000143     1.007825032070
           H          2.854525169641     8.442048519537     3.737546000143     1.007825032070
           H          0.503525169641     8.438048519537     0.968546000143     1.007825032070
           H        -12.337474830359     2.140048519537     6.924546000143     1.007825032070
           H         -9.904474830359    -0.112951480463     4.940546000143     1.007825032070
           H          0.155525169641     5.881048519537    -4.745453999857     1.007825032070
           H          2.268525169641     5.307048519537    -1.726453999857     1.007825032070
           H          3.242525169641     4.370048519537     0.408546000143     1.007825032070
           H          2.032525169641     1.677048519537     0.567546000143     1.007825032070
           H          3.405525169641    -0.581951480463    -0.438453999857     1.007825032070
           H          2.370525169641    -3.483951480463    -5.305453999857     1.007825032070
           H         -0.076474830359    -4.147951480463    -6.505453999857     1.007825032070
           H         -3.522474830359    -4.916951480463    -8.120453999857     1.007825032070
           H         -2.297474830359    -5.529951480463     5.260546000143     1.007825032070
           H         -4.809474830359    -2.538951480463     6.717546000143     1.007825032070

  Running in c1 symmetry.

  Rotational constants: A =      0.00083  B =      0.00061  C =      0.00051 [cm^-1]
  Rotational constants: A =     24.83034  B =     18.39626  C =     15.29315 [MHz]
  Nuclear repulsion = 6201.543659593415214

  Charge       = 0
  Multiplicity = 1
  Electrons    = 398
  Nalpha       = 199
  Nbeta        = 199

  ==> Algorithm <==

  SCF Algorithm Type is DF.
  DIIS enabled.
  MOM disabled.
  Fractional occupation disabled.
  Guess Type is SAD.
  Energy threshold   = 1.00e-06
  Density threshold  = 1.00e-06
  Integral threshold = 0.00e+00

  ==> Primary Basis <==

  Basis Set: CC-PVDZ
    Blend: CC-PVDZ
    Number of shells: 462
    Number of basis function: 974
    Number of Cartesian functions: 1025
    Spherical Harmonics?: true
    Max angular momentum: 2

   => Loading Basis Set <=

    Name: (CC-PVDZ AUX)
    Role: JKFIT
    Keyword: DF_BASIS_SCF
    atoms 1, 9, 13, 21, 25, 33, 41, 48                                                          entry N          line   171 file /theoryfs2/ds/schieber/Gits/mspsi4/objdir3/stage/usr/local/psi4/share/psi4/basis/cc-pvdz-jkfit.gbs 
    atoms 2-3, 5-6, 10-11, 14-15, 17-18, 22-23, 26-27, 29-30, 34-35, 37-38, 42-43, 45-47, 49-50 entry C          line   121 file /theoryfs2/ds/schieber/Gits/mspsi4/objdir3/stage/usr/local/psi4/share/psi4/basis/cc-pvdz-jkfit.gbs 
    atoms 4, 7-8, 12, 16, 19-20, 24, 28, 31-32, 36, 39-40, 44, 51                               entry O          line   221 file /theoryfs2/ds/schieber/Gits/mspsi4/objdir3/stage/usr/local/psi4/share/psi4/basis/cc-pvdz-jkfit.gbs 
    atoms 52-103                                                                                entry H          line    51 file /theoryfs2/ds/schieber/Gits/mspsi4/objdir3/stage/usr/local/psi4/share/psi4/basis/cc-pvdz-jkfit.gbs 

  ==> Pre-Iterations <==

   -------------------------------------------------------
    Irrep   Nso     Nmo     Nalpha   Nbeta   Ndocc  Nsocc
   -------------------------------------------------------
     A        974     974       0       0       0       0
   -------------------------------------------------------
    Total     974     974     199     199     199       0
   -------------------------------------------------------

  ==> Integral Setup <==


    ==> DF_Helper <==
      nao           = 974
      naux          = 4766
      Scwarz cutoff = 1.000000E-12
      mem (doubles) = 5625000000
      nthreads      = 6
      Algorithm     = STORE
      AO_core?      = 1
      MO_core?      = 0
      hold metric   = 0
      metric power  = -5.000000E-01
  Fitting condition = 1.000000E-12
  Mask sparsity (%) = (73.650857)


  Minimum eigenvalue in the overlap matrix is 1.4715158848E-03.
  Using Symmetric Orthogonalization.

  SCF Guess: Superposition of Atomic Densities via on-the-fly atomic UHF.

  ==> Iterations <==

                           Total Energy        Delta E     RMS |[F,P]|

   @DF-RHF iter   0: -2704.79246314764623   -2.70479e+03   3.31815e-02 
   @DF-RHF iter   1: -2684.10174309471222    2.06907e+01   4.48223e-03 
   @DF-RHF iter   2: -2685.27822309881049   -1.17648e+00   3.31116e-03 DIIS
   @DF-RHF iter   3: -2685.95373523664330   -6.75512e-01   6.59253e-04 DIIS
   @DF-RHF iter   4: -2686.01780053116454   -6.40653e-02   2.38723e-04 DIIS
   @DF-RHF iter   5: -2686.02717802506731   -9.37749e-03   1.07324e-04 DIIS
   @DF-RHF iter   6: -2686.02940974729609   -2.23172e-03   4.45454e-05 DIIS
   @DF-RHF iter   7: -2686.02991737014736   -5.07623e-04   2.12246e-05 DIIS
   @DF-RHF iter   8: -2686.03001850948431   -1.01139e-04   7.75873e-06 DIIS
   @DF-RHF iter   9: -2686.03004141832162   -2.29088e-05   3.44191e-06 DIIS
   @DF-RHF iter  10: -2686.03004679787045   -5.37955e-06   1.78501e-06 DIIS
   @DF-RHF iter  11: -2686.03004827305722   -1.47519e-06   8.49098e-07 DIIS
   @DF-RHF iter  12: -2686.03004858715030   -3.14093e-07   3.97444e-07 DIIS

  ==> Post-Iterations <==

    Orbital Energies (a.u.)
    -----------------------

    Doubly Occupied:                                                      

       1A    -20.651608     2A    -20.641621     3A    -20.630423  
       4A    -20.599231     5A    -20.584233     6A    -20.565249  
       7A    -20.558374     8A    -20.556904     9A    -20.556251  
      10A    -20.555857    11A    -20.551316    12A    -20.549465  
      13A    -20.538044    14A    -20.514384    15A    -20.511515  
      16A    -20.509935    17A    -15.598525    18A    -15.554082  
      19A    -15.547101    20A    -15.545353    21A    -15.542169  
      22A    -15.541296    23A    -15.539907    24A    -15.535129  
      25A    -11.412430    26A    -11.397564    27A    -11.380475  
      28A    -11.363897    29A    -11.359423    30A    -11.342182  
      31A    -11.341534    32A    -11.336722    33A    -11.334354  
      34A    -11.332303    35A    -11.331873    36A    -11.330529  
      37A    -11.308012    38A    -11.292229    39A    -11.286205  
      40A    -11.283792    41A    -11.279675    42A    -11.275161  
      43A    -11.274159    44A    -11.272682    45A    -11.272668  
      46A    -11.262998    47A    -11.259689    48A    -11.234556  
      49A    -11.233811    50A    -11.230662    51A    -11.223316  
      52A     -1.524367    53A     -1.519993    54A     -1.506709  
      55A     -1.493227    56A     -1.414997    57A     -1.391894  
      58A     -1.387703    59A     -1.386261    60A     -1.379431  
      61A     -1.375983    62A     -1.368916    63A     -1.364358  
      64A     -1.352619    65A     -1.352379    66A     -1.332502  
      67A     -1.325542    68A     -1.251003    69A     -1.206401  
      70A     -1.192586    71A     -1.186457    72A     -1.182835  
      73A     -1.178069    74A     -1.174509    75A     -1.162600  
      76A     -1.095252    77A     -1.083149    78A     -1.050339  
      79A     -1.048068    80A     -1.035306    81A     -0.974180  
      82A     -0.966175    83A     -0.963986    84A     -0.962768  
      85A     -0.958240    86A     -0.944137    87A     -0.933878  
      88A     -0.929085    89A     -0.924548    90A     -0.905310  
      91A     -0.900994    92A     -0.881592    93A     -0.867182  
      94A     -0.826733    95A     -0.808655    96A     -0.803220  
      97A     -0.796112    98A     -0.794645    99A     -0.790285  
     100A     -0.790212   101A     -0.786782   102A     -0.762682  
     103A     -0.747135   104A     -0.740429   105A     -0.728022  
     106A     -0.722000   107A     -0.711922   108A     -0.711578  
     109A     -0.708625   110A     -0.702732   111A     -0.697124  
     112A     -0.692641   113A     -0.692388   114A     -0.692127  
     115A     -0.689806   116A     -0.686270   117A     -0.684466  
     118A     -0.679891   119A     -0.677149   120A     -0.677006  
     121A     -0.673634   122A     -0.660528   123A     -0.658395  
     124A     -0.656311   125A     -0.652391   126A     -0.650616  
     127A     -0.650440   128A     -0.648711   129A     -0.644160  
     130A     -0.642917   131A     -0.635613   132A     -0.634894  
     133A     -0.632466   134A     -0.624978   135A     -0.624350  
     136A     -0.623708   137A     -0.622649   138A     -0.620526  
     139A     -0.620385   140A     -0.619481   141A     -0.612683  
     142A     -0.606626   143A     -0.603453   144A     -0.602724  
     145A     -0.591677   146A     -0.585333   147A     -0.582139  
     148A     -0.570728   149A     -0.569884   150A     -0.569218  
     151A     -0.566918   152A     -0.557741   153A     -0.554064  
     154A     -0.553713   155A     -0.550622   156A     -0.550455  
     157A     -0.548968   158A     -0.543848   159A     -0.536723  
     160A     -0.530391   161A     -0.528098   162A     -0.524759  
     163A     -0.520890   164A     -0.520781   165A     -0.517380  
     166A     -0.510844   167A     -0.509666   168A     -0.506004  
     169A     -0.495083   170A     -0.494531   171A     -0.487899  
     172A     -0.482867   173A     -0.479205   174A     -0.477158  
     175A     -0.471986   176A     -0.463724   177A     -0.457190  
     178A     -0.452325   179A     -0.446913   180A     -0.445741  
     181A     -0.445087   182A     -0.439196   183A     -0.437023  
     184A     -0.435493   185A     -0.434613   186A     -0.434382  
     187A     -0.429357   188A     -0.428722   189A     -0.424876  
     190A     -0.423625   191A     -0.420669   192A     -0.399652  
     193A     -0.376873   194A     -0.372439   195A     -0.366395  
     196A     -0.366006   197A     -0.365765   198A     -0.361824  
     199A     -0.358872  

    Virtual:                                                              

     200A      0.116433   201A      0.118585   202A      0.120492  
     203A      0.128140   204A      0.132444   205A      0.133379  
     206A      0.135491   207A      0.135662   208A      0.142066  
     209A      0.142469   210A      0.150137   211A      0.154618  
     212A      0.164179   213A      0.167844   214A      0.171185  
     215A      0.177220   216A      0.178016   217A      0.182840  
     218A      0.185903   219A      0.186642   220A      0.190613  
     221A      0.192820   222A      0.195809   223A      0.196596  
     224A      0.200374   225A      0.200689   226A      0.205869  
     227A      0.207847   228A      0.210614   229A      0.213341  
     230A      0.216196   231A      0.216585   232A      0.220217  
     233A      0.222822   234A      0.223724   235A      0.227564  
     236A      0.233927   237A      0.236790   238A      0.242322  
     239A      0.243347   240A      0.245237   241A      0.247475  
     242A      0.247553   243A      0.248131   244A      0.252096  
     245A      0.259391   246A      0.262467   247A      0.265260  
     248A      0.268452   249A      0.276136   250A      0.277147  
     251A      0.279123   252A      0.283681   253A      0.285923  
     254A      0.286922   255A      0.288656   256A      0.296042  
     257A      0.297675   258A      0.301257   259A      0.309245  
     260A      0.310448   261A      0.323668   262A      0.332911  
     263A      0.340121   264A      0.343113   265A      0.351127  
     266A      0.356406   267A      0.369421   268A      0.371522  
     269A      0.372681   270A      0.381568   271A      0.386165  
     272A      0.388594   273A      0.389160   274A      0.406602  
     275A      0.410636   276A      0.412614   277A      0.417995  
     278A      0.424195   279A      0.425015   280A      0.427488  
     281A      0.427881   282A      0.434045   283A      0.434304  
     284A      0.435781   285A      0.438064   286A      0.440410  
     287A      0.443824   288A      0.447034   289A      0.451406  
     290A      0.453549   291A      0.457616   292A      0.461996  
     293A      0.466039   294A      0.474255   295A      0.476902  
     296A      0.485812   297A      0.487517   298A      0.488679  
     299A      0.501944   300A      0.513148   301A      0.520240  
     302A      0.531782   303A      0.539316   304A      0.560233  
     305A      0.567603   306A      0.573025   307A      0.591324  
     308A      0.598779   309A      0.600349   310A      0.623975  
     311A      0.626413   312A      0.626685   313A      0.636200  
     314A      0.637606   315A      0.639095   316A      0.645487  
     317A      0.653499   318A      0.656231   319A      0.660026  
     320A      0.661032   321A      0.668828   322A      0.676358  
     323A      0.679256   324A      0.680308   325A      0.685822  
     326A      0.688612   327A      0.692128   328A      0.693588  
     329A      0.694825   330A      0.699438   331A      0.702584  
     332A      0.703913   333A      0.704573   334A      0.704773  
     335A      0.708273   336A      0.713243   337A      0.713797  
     338A      0.719829   339A      0.723477   340A      0.724602  
     341A      0.726811   342A      0.737614   343A      0.738410  
     344A      0.741223   345A      0.741482   346A      0.744274  
     347A      0.746547   348A      0.749651   349A      0.751298  
     350A      0.757246   351A      0.758441   352A      0.759912  
     353A      0.761026   354A      0.763086   355A      0.765959  
     356A      0.769081   357A      0.775049   358A      0.778257  
     359A      0.780183   360A      0.783727   361A      0.787869  
     362A      0.789145   363A      0.794023   364A      0.796042  
     365A      0.798277   366A      0.802783   367A      0.803427  
     368A      0.805695   369A      0.807823   370A      0.812871  
     371A      0.814066   372A      0.816593   373A      0.818103  
     374A      0.820911   375A      0.825193   376A      0.830434  
     377A      0.836595   378A      0.837949   379A      0.840289  
     380A      0.842261   381A      0.845757   382A      0.849016  
     383A      0.851660   384A      0.853682   385A      0.856048  
     386A      0.857406   387A      0.859627   388A      0.859900  
     389A      0.863498   390A      0.866835   391A      0.868979  
     392A      0.871931   393A      0.872910   394A      0.875506  
     395A      0.877809   396A      0.878050   397A      0.878985  
     398A      0.879378   399A      0.882111   400A      0.884108  
     401A      0.885184   402A      0.886987   403A      0.887895  
     404A      0.891337   405A      0.892596   406A      0.894782  
     407A      0.896800   408A      0.899456   409A      0.901073  
     410A      0.905542   411A      0.907824   412A      0.909781  
     413A      0.909943   414A      0.911378   415A      0.915645  
     416A      0.917322   417A      0.918355   418A      0.919619  
     419A      0.923435   420A      0.924163   421A      0.926148  
     422A      0.934614   423A      0.935672   424A      0.941001  
     425A      0.945629   426A      0.945756   427A      0.947292  
     428A      0.959879   429A      0.962865   430A      0.964533  
     431A      0.967001   432A      0.968870   433A      0.969263  
     434A      0.974800   435A      0.978820   436A      0.981032  
     437A      0.985654   438A      0.999279   439A      1.001535  
     440A      1.002192   441A      1.004086   442A      1.007861  
     443A      1.015761   444A      1.017806   445A      1.023588  
     446A      1.024709   447A      1.028631   448A      1.030698  
     449A      1.034413   450A      1.039565   451A      1.040781  
     452A      1.043980   453A      1.056406   454A      1.059895  
     455A      1.060836   456A      1.074114   457A      1.077822  
     458A      1.078842   459A      1.080050   460A      1.082328  
     461A      1.082561   462A      1.093444   463A      1.094143  
     464A      1.095058   465A      1.095464   466A      1.102222  
     467A      1.103819   468A      1.108287   469A      1.118711  
     470A      1.119950   471A      1.125796   472A      1.129657  
     473A      1.137679   474A      1.139911   475A      1.140100  
     476A      1.144277   477A      1.155232   478A      1.156159  
     479A      1.158904   480A      1.167101   481A      1.168329  
     482A      1.177063   483A      1.182454   484A      1.192845  
     485A      1.196232   486A      1.209808   487A      1.214297  
     488A      1.225824   489A      1.226684   490A      1.239785  
     491A      1.246560   492A      1.258579   493A      1.270660  
     494A      1.277734   495A      1.285651   496A      1.290807  
     497A      1.291541   498A      1.296787   499A      1.297785  
     500A      1.298104   501A      1.300012   502A      1.302271  
     503A      1.304603   504A      1.306696   505A      1.316559  
     506A      1.324173   507A      1.325897   508A      1.330515  
     509A      1.333493   510A      1.335746   511A      1.343661  
     512A      1.344937   513A      1.347401   514A      1.353878  
     515A      1.355126   516A      1.356326   517A      1.360907  
     518A      1.362245   519A      1.364944   520A      1.365729  
     521A      1.370576   522A      1.375743   523A      1.376235  
     524A      1.377806   525A      1.380340   526A      1.387015  
     527A      1.387788   528A      1.388587   529A      1.390238  
     530A      1.392935   531A      1.393563   532A      1.394536  
     533A      1.395757   534A      1.398408   535A      1.398851  
     536A      1.398915   537A      1.405108   538A      1.411823  
     539A      1.416972   540A      1.423030   541A      1.424186  
     542A      1.426662   543A      1.432190   544A      1.434618  
     545A      1.439460   546A      1.445550   547A      1.449825  
     548A      1.452880   549A      1.458025   550A      1.459384  
     551A      1.461652   552A      1.464762   553A      1.465769  
     554A      1.472903   555A      1.478366   556A      1.484049  
     557A      1.487087   558A      1.491383   559A      1.495357  
     560A      1.502585   561A      1.502994   562A      1.511209  
     563A      1.512188   564A      1.512721   565A      1.517656  
     566A      1.523179   567A      1.529477   568A      1.535944  
     569A      1.552464   570A      1.557975   571A      1.565238  
     572A      1.568535   573A      1.582095   574A      1.594245  
     575A      1.597686   576A      1.601274   577A      1.608571  
     578A      1.609825   579A      1.614308   580A      1.618465  
     581A      1.622378   582A      1.624631   583A      1.625755  
     584A      1.628152   585A      1.633060   586A      1.636434  
     587A      1.639480   588A      1.643087   589A      1.648490  
     590A      1.655126   591A      1.658131   592A      1.659210  
     593A      1.664620   594A      1.669972   595A      1.674393  
     596A      1.680533   597A      1.684376   598A      1.684531  
     599A      1.700286   600A      1.701390   601A      1.704430  
     602A      1.707729   603A      1.708298   604A      1.712936  
     605A      1.720311   606A      1.727290   607A      1.733744  
     608A      1.736506   609A      1.737204   610A      1.742147  
     611A      1.750423   612A      1.778492   613A      1.781614  
     614A      1.783014   615A      1.786605   616A      1.787755  
     617A      1.794177   618A      1.804045   619A      1.806830  
     620A      1.812705   621A      1.816110   622A      1.821362  
     623A      1.823461   624A      1.824307   625A      1.828318  
     626A      1.832133   627A      1.841310   628A      1.843297  
     629A      1.847713   630A      1.851431   631A      1.851502  
     632A      1.852680   633A      1.853233   634A      1.854990  
     635A      1.858646   636A      1.860172   637A      1.865111  
     638A      1.869579   639A      1.870243   640A      1.877622  
     641A      1.882822   642A      1.882977   643A      1.886444  
     644A      1.887681   645A      1.891764   646A      1.893082  
     647A      1.897201   648A      1.901617   649A      1.905207  
     650A      1.906404   651A      1.912924   652A      1.913679  
     653A      1.915742   654A      1.919496   655A      1.921317  
     656A      1.927477   657A      1.930469   658A      1.934317  
     659A      1.937847   660A      1.939674   661A      1.945084  
     662A      1.945920   663A      1.948279   664A      1.948748  
     665A      1.951344   666A      1.952627   667A      1.956667  
     668A      1.959129   669A      1.961604   670A      1.963449  
     671A      1.965563   672A      1.967100   673A      1.973257  
     674A      1.975306   675A      1.977360   676A      1.980728  
     677A      1.982689   678A      1.983773   679A      1.988507  
     680A      1.989400   681A      1.994508   682A      1.996561  
     683A      2.001573   684A      2.003382   685A      2.009074  
     686A      2.011314   687A      2.012423   688A      2.015030  
     689A      2.015561   690A      2.017818   691A      2.019195  
     692A      2.021400   693A      2.035963   694A      2.040528  
     695A      2.042231   696A      2.042613   697A      2.047606  
     698A      2.050246   699A      2.052121   700A      2.054024  
     701A      2.058179   702A      2.063608   703A      2.065089  
     704A      2.074265   705A      2.076018   706A      2.083123  
     707A      2.091265   708A      2.093502   709A      2.094507  
     710A      2.094952   711A      2.099640   712A      2.100583  
     713A      2.101280   714A      2.113140   715A      2.115617  
     716A      2.115754   717A      2.117028   718A      2.122610  
     719A      2.125347   720A      2.131818   721A      2.136531  
     722A      2.138298   723A      2.139259   724A      2.143182  
     725A      2.147178   726A      2.150639   727A      2.158494  
     728A      2.164174   729A      2.169082   730A      2.170631  
     731A      2.181491   732A      2.181840   733A      2.185237  
     734A      2.187032   735A      2.187416   736A      2.191382  
     737A      2.192389   738A      2.200865   739A      2.208143  
     740A      2.213122   741A      2.214637   742A      2.229920  
     743A      2.237031   744A      2.238378   745A      2.248328  
     746A      2.248602   747A      2.251071   748A      2.256732  
     749A      2.259617   750A      2.262498   751A      2.277728  
     752A      2.280527   753A      2.286202   754A      2.295208  
     755A      2.301524   756A      2.309455   757A      2.317041  
     758A      2.319307   759A      2.324816   760A      2.338621  
     761A      2.340630   762A      2.344464   763A      2.344727  
     764A      2.348148   765A      2.353356   766A      2.354033  
     767A      2.359894   768A      2.361882   769A      2.364588  
     770A      2.370143   771A      2.383145   772A      2.387910  
     773A      2.394268   774A      2.398179   775A      2.421289  
     776A      2.429811   777A      2.439729   778A      2.444803  
     779A      2.449747   780A      2.450113   781A      2.450806  
     782A      2.452283   783A      2.458810   784A      2.468865  
     785A      2.476906   786A      2.485291   787A      2.491935  
     788A      2.498349   789A      2.498831   790A      2.499180  
     791A      2.505873   792A      2.508349   793A      2.514351  
     794A      2.517364   795A      2.527037   796A      2.532560  
     797A      2.536227   798A      2.538785   799A      2.550581  
     800A      2.555003   801A      2.558283   802A      2.571797  
     803A      2.576048   804A      2.579297   805A      2.591235  
     806A      2.593932   807A      2.597492   808A      2.608692  
     809A      2.610695   810A      2.613282   811A      2.616647  
     812A      2.625657   813A      2.630055   814A      2.636550  
     815A      2.644199   816A      2.645378   817A      2.651385  
     818A      2.656804   819A      2.662094   820A      2.662893  
     821A      2.670542   822A      2.674178   823A      2.676714  
     824A      2.677165   825A      2.693245   826A      2.701322  
     827A      2.705775   828A      2.709425   829A      2.712231  
     830A      2.715366   831A      2.722557   832A      2.726725  
     833A      2.727077   834A      2.733251   835A      2.735827  
     836A      2.737030   837A      2.747031   838A      2.747611  
     839A      2.753202   840A      2.759704   841A      2.764659  
     842A      2.771915   843A      2.777446   844A      2.786927  
     845A      2.791929   846A      2.794304   847A      2.797697  
     848A      2.802219   849A      2.808877   850A      2.811044  
     851A      2.816167   852A      2.824574   853A      2.832542  
     854A      2.835729   855A      2.838491   856A      2.840876  
     857A      2.856143   858A      2.859880   859A      2.864005  
     860A      2.871175   861A      2.883466   862A      2.887939  
     863A      2.892174   864A      2.896995   865A      2.899629  
     866A      2.901698   867A      2.904931   868A      2.906420  
     869A      2.914516   870A      2.916376   871A      2.931793  
     872A      2.942974   873A      2.968387   874A      2.972335  
     875A      2.985557   876A      3.019306   877A      3.023255  
     878A      3.039480   879A      3.040685   880A      3.045268  
     881A      3.045743   882A      3.055845   883A      3.059286  
     884A      3.067732   885A      3.070100   886A      3.072877  
     887A      3.073015   888A      3.076890   889A      3.078967  
     890A      3.082334   891A      3.087890   892A      3.096270  
     893A      3.107703   894A      3.120223   895A      3.126955  
     896A      3.136304   897A      3.141779   898A      3.145816  
     899A      3.150791   900A      3.151272   901A      3.153006  
     902A      3.154672   903A      3.162919   904A      3.162950  
     905A      3.196861   906A      3.230599   907A      3.233771  
     908A      3.264632   909A      3.284785   910A      3.298671  
     911A      3.308206   912A      3.310385   913A      3.313207  
     914A      3.331679   915A      3.337416   916A      3.370301  
     917A      3.398079   918A      3.400527   919A      3.402844  
     920A      3.417393   921A      3.421197   922A      3.426313  
     923A      3.428285   924A      3.433010   925A      3.435203  
     926A      3.442590   927A      3.455791   928A      3.465225  
     929A      3.466729   930A      3.468145   931A      3.470132  
     932A      3.473570   933A      3.483660   934A      3.501177  
     935A      3.501920   936A      3.516236   937A      3.521110  
     938A      3.536037   939A      3.552294   940A      3.552846  
     941A      3.570526   942A      3.576264   943A      3.659474  
     944A      3.675836   945A      3.682132   946A      3.719658  
     947A      3.728396   948A      3.740413   949A      3.742758  
     950A      3.746823   951A      3.748131   952A      3.773484  
     953A      3.806131   954A      3.812388   955A      3.820889  
     956A      3.824779   957A      3.829228   958A      3.838952  
     959A      3.842250   960A      3.844088   961A      3.845144  
     962A      3.850888   963A      3.852909   964A      3.861408  
     965A      3.865413   966A      3.888906   967A      3.894495  
     968A      3.904073   969A      3.930357   970A      3.968697  
     971A      4.149634   972A      4.169800   973A      4.239909  
     974A      4.245837  

    Final Occupation by Irrep:
              A 
    DOCC [   199 ]

  Energy converged.

  @DF-RHF Final Energy: -2686.03004858715030

   => Energetics <=

    Nuclear Repulsion Energy =           6201.5436595934152137
    One-Electron Energy =              -16035.8162073527528264
    Two-Electron Energy =                7148.2424991721873084
    Total Energy =                      -2686.0300485871503042



Properties will be evaluated at   0.000000,   0.000000,   0.000000 Bohr

Properties computed using the SCF density matrix

  Nuclear Dipole Moment: (a.u.)
     X:   -36.4282      Y:   -12.7853      Z:    -6.2450

  Electronic Dipole Moment: (a.u.)
     X:    35.6139      Y:    11.3782      Z:     6.7652

  Dipole Moment: (a.u.)
     X:    -0.8143      Y:    -1.4071      Z:     0.5202     Total:     1.7069

  Dipole Moment: (Debye)
     X:    -2.0698      Y:    -3.5764      Z:     1.3222     Total:     4.3385


*** tstop() called on hex15 at Sun Mar  4 12:28:12 2018
Module time:
	user time   =    1056.35 seconds =      17.61 minutes
	system time =      12.95 seconds =       0.22 minutes
	total time  =        628 seconds =      10.47 minutes
Total time:
	user time   =    1056.35 seconds =      17.61 minutes
	system time =      12.95 seconds =       0.22 minutes
	total time  =        628 seconds =      10.47 minutes

*** Psi4 exiting successfully. Buy a developer a beer!
