
    -----------------------------------------------------------------------
          Psi4: An Open-Source Ab Initio Electronic Structure Package
                               Psi4 1.2a1.dev875 

                         Git: Rev {symm_JK} 0ea9481 dirty


    R. M. Parrish, L. A. Burns, D. G. A. Smith, A. C. Simmonett,
    A. E. DePrince III, E. G. Hohenstein, U. Bozkaya, A. Yu. Sokolov,
    R. Di Remigio, R. M. Richard, J. F. Gonthier, A. M. James,
    H. R. McAlexander, A. Kumar, M. Saitow, X. Wang, B. P. Pritchard,
    P. Verma, H. F. Schaefer III, K. Patkowski, R. A. King, E. F. Valeev,
    F. A. Evangelista, J. M. Turney, T. D. Crawford, and C. D. Sherrill,
    J. Chem. Theory Comput. 13(7) pp 3185--3197 (2017).
    (doi: 10.1021/acs.jctc.7b00174)

    -----------------------------------------------------------------------


    Psi4 started on: Friday, 09 March 2018 05:38PM

    Process ID:  12050
    PSIDATADIR: /theoryfs2/ds/schieber/Gits/mspsi4/objdir3/stage/usr/local/psi4/share/psi4
    Memory:     500.0 MiB
    Threads:    6
    
  ==> Input File <==

--------------------------------------------------------------------------
memory 60 Gb

molecule protein_103 {
0 1
 N   18.626  30.444   6.627
 C   17.853  29.516   5.837
 C   16.945  30.292   4.886
 O   15.843  30.678   5.237
 C   17.047  28.642   6.811
 C   16.316  27.513   6.146
 O   16.236  27.458   4.905
 O   15.762  26.696   6.882
 N    4.567  24.042   8.795
 C    4.886  22.777   8.145
 C    6.265  22.720   7.521
 O    6.723  23.689   6.900
 N   17.407  27.054  -1.437
 C   17.227  26.751  -0.026
 C   18.555  26.446   0.653
 O   19.003  25.309   0.692
 C   16.258  25.572   0.084
 C   15.759  25.336   1.493
 O   16.399  25.780   2.453
 O   14.731  24.675   1.645
 N   19.106  26.199   3.688
 C   18.957  25.372   4.876
 C   18.845  23.903   4.520
 O   18.660  23.054   5.417
 N   20.536  20.559   2.918
 C   21.779  19.912   2.496
 C   21.693  19.374   1.107
 O   22.642  19.502   0.361
 C   22.169  18.827   3.447
 C   22.272  19.337   4.844
 O   22.714  20.482   5.029
 O   21.836  18.647   5.778
 N   20.524  18.868   0.719
 C   20.355  18.227  -0.584
 C   19.212  18.807  -1.371
 O   18.383  19.523  -0.846
 C   20.084  16.745  -0.413
 C   21.023  16.088   0.586
 O   22.233  15.970   0.265
 O   20.531  15.682   1.672
 N   15.750  18.102  -3.440
 C   14.628  17.162  -3.514
 C   13.618  17.726  -4.436
 O   13.169  18.861  -4.263
 C   13.781  17.005  -2.245
 C   13.297  15.592  -2.184
 C   14.518  17.455  -1.007
 N   13.583  16.896   8.239
 C   13.484  18.319   8.459
 C   12.647  18.565   9.672
 O   12.880  17.976  10.721
 H   18.180  30.990   7.295
 H   18.510  28.835   5.249
 H   16.336  29.276   7.377
 H   17.778  28.186   7.516
 H   15.845  26.702   7.843
 H    4.436  24.871   8.195
 H    4.744  21.930   8.802
 H    4.143  22.632   7.335
 H   17.860  26.421  -2.023
 H   16.724  27.595   0.500
 H   16.724  24.663  -0.337
 H   15.363  25.845  -0.519
 H   16.737  25.171   3.109
 H   18.314  26.771   3.377
 H   18.015  25.631   5.391
 H   19.792  25.567   5.577
 H   19.976  20.073   3.597
 H   22.602  20.664   2.537
 H   23.175  18.459   3.144
 H   21.465  17.966   3.392
 H   21.492  17.752   5.634
 H   19.735  18.818   1.381
 H   21.291  18.340  -1.170
 H   20.109  16.188  -1.374
 H   19.050  16.648  -0.012
 H   19.629  15.364   1.734
 H   15.541  19.065  -3.172
 H   15.011  16.180  -3.836
 H   12.886  17.674  -2.203
 H   14.115  14.872  -2.046
 H   12.706  15.323  -3.086
 H   12.624  15.478  -1.307
 H   15.405  16.799  -0.936
 H   13.886  17.316  -0.103
 H   14.813  18.522  -1.068
 H   12.728  16.393   8.153
 H   13.053  18.790   7.555
 H   14.480  18.781   8.624
 H   19.646  30.419   6.619
 H   17.295  30.415   3.850
 H    4.454  24.117   9.806
 H    6.887  21.864   7.822
 H   16.947  27.858  -1.864
 H   19.060  27.284   1.155
 H   20.034  26.347   3.290
 H   18.824  23.654   3.449
 H   20.197  21.395   2.443
 H   19.162  18.493  -2.424
 H   16.715  17.829  -3.624
 H   13.269  17.060  -5.239
 H   14.494  16.447   8.142
 H   11.982  19.438   9.599
}

set {
basis aug-cc-pvqz
scf_type df
guess sad
DF_SCF_TYPE DFJK
}

energy('HF')
--------------------------------------------------------------------------

  Memory set to  55.879 GiB by Python driver.

*** tstart() called on hex15
*** at Fri Mar  9 17:38:55 2018

   => Loading Basis Set <=

    Name: AUG-CC-PVQZ
    Role: ORBITAL
    Keyword: BASIS
    atoms 1, 9, 13, 21, 25, 33, 41, 48                                                          entry N          line   359 file /theoryfs2/ds/schieber/Gits/mspsi4/objdir3/stage/usr/local/psi4/share/psi4/basis/aug-cc-pvqz.gbs 
    atoms 2-3, 5-6, 10-11, 14-15, 17-18, 22-23, 26-27, 29-30, 34-35, 37-38, 42-43, 45-47, 49-50 entry C          line   299 file /theoryfs2/ds/schieber/Gits/mspsi4/objdir3/stage/usr/local/psi4/share/psi4/basis/aug-cc-pvqz.gbs 
    atoms 4, 7-8, 12, 16, 19-20, 24, 28, 31-32, 36, 39-40, 44, 51                               entry O          line   419 file /theoryfs2/ds/schieber/Gits/mspsi4/objdir3/stage/usr/local/psi4/share/psi4/basis/aug-cc-pvqz.gbs 
    atoms 52-103                                                                                entry H          line    36 file /theoryfs2/ds/schieber/Gits/mspsi4/objdir3/stage/usr/local/psi4/share/psi4/basis/aug-cc-pvqz.gbs 


         ---------------------------------------------------------
                                   SCF
            by Justin Turney, Rob Parrish, Andy Simmonett
                             and Daniel Smith
                              RHF Reference
                        6 Threads,  57220 MiB Core
         ---------------------------------------------------------

  ==> Geometry <==

    Molecular point group: c1
    Full point group: C1

    Geometry (in Angstrom), charge = 0, multiplicity = 1:

       Center              X                  Y                   Z               Mass       
    ------------   -----------------  -----------------  -----------------  -----------------
           N          1.834525169641     8.467048519537     3.745546000143    14.003074004780
           C          1.061525169641     7.539048519537     2.955546000143    12.000000000000
           C          0.153525169641     8.315048519537     2.004546000143    12.000000000000
           O         -0.948474830359     8.701048519537     2.355546000143    15.994914619560
           C          0.255525169641     6.665048519537     3.929546000143    12.000000000000
           C         -0.475474830359     5.536048519537     3.264546000143    12.000000000000
           O         -0.555474830359     5.481048519537     2.023546000143    15.994914619560
           O         -1.029474830359     4.719048519537     4.000546000143    15.994914619560
           N        -12.224474830359     2.065048519537     5.913546000143    14.003074004780
           C        -11.905474830359     0.800048519537     5.263546000143    12.000000000000
           C        -10.526474830359     0.743048519537     4.639546000143    12.000000000000
           O        -10.068474830359     1.712048519537     4.018546000143    15.994914619560
           N          0.615525169641     5.077048519537    -4.318453999857    14.003074004780
           C          0.435525169641     4.774048519537    -2.907453999857    12.000000000000
           C          1.763525169641     4.469048519537    -2.228453999857    12.000000000000
           O          2.211525169641     3.332048519537    -2.189453999857    15.994914619560
           C         -0.533474830359     3.595048519537    -2.797453999857    12.000000000000
           C         -1.032474830359     3.359048519537    -1.388453999857    12.000000000000
           O         -0.392474830359     3.803048519537    -0.428453999857    15.994914619560
           O         -2.060474830359     2.698048519537    -1.236453999857    15.994914619560
           N          2.314525169641     4.222048519537     0.806546000143    14.003074004780
           C          2.165525169641     3.395048519537     1.994546000143    12.000000000000
           C          2.053525169641     1.926048519537     1.638546000143    12.000000000000
           O          1.868525169641     1.077048519537     2.535546000143    15.994914619560
           N          3.744525169641    -1.417951480463     0.036546000143    14.003074004780
           C          4.987525169641    -2.064951480463    -0.385453999857    12.000000000000
           C          4.901525169641    -2.602951480463    -1.774453999857    12.000000000000
           O          5.850525169641    -2.474951480463    -2.520453999857    15.994914619560
           C          5.377525169641    -3.149951480463     0.565546000143    12.000000000000
           C          5.480525169641    -2.639951480463     1.962546000143    12.000000000000
           O          5.922525169641    -1.494951480463     2.147546000143    15.994914619560
           O          5.044525169641    -3.329951480463     2.896546000143    15.994914619560
           N          3.732525169641    -3.108951480463    -2.162453999857    14.003074004780
           C          3.563525169641    -3.749951480463    -3.465453999857    12.000000000000
           C          2.420525169641    -3.169951480463    -4.252453999857    12.000000000000
           O          1.591525169641    -2.453951480463    -3.727453999857    15.994914619560
           C          3.292525169641    -5.231951480463    -3.294453999857    12.000000000000
           C          4.231525169641    -5.888951480463    -2.295453999857    12.000000000000
           O          5.441525169641    -6.006951480463    -2.616453999857    15.994914619560
           O          3.739525169641    -6.294951480463    -1.209453999857    15.994914619560
           N         -1.041474830359    -3.874951480463    -6.321453999857    14.003074004780
           C         -2.163474830359    -4.814951480463    -6.395453999857    12.000000000000
           C         -3.173474830359    -4.250951480463    -7.317453999857    12.000000000000
           O         -3.622474830359    -3.115951480463    -7.144453999857    15.994914619560
           C         -3.010474830359    -4.971951480463    -5.126453999857    12.000000000000
           C         -3.494474830359    -6.384951480463    -5.065453999857    12.000000000000
           C         -2.273474830359    -4.521951480463    -3.888453999857    12.000000000000
           N         -3.208474830359    -5.080951480463     5.357546000143    14.003074004780
           C         -3.307474830359    -3.657951480463     5.577546000143    12.000000000000
           C         -4.144474830359    -3.411951480463     6.790546000143    12.000000000000
           O         -3.911474830359    -4.000951480463     7.839546000143    15.994914619560
           H          1.388525169641     9.013048519537     4.413546000143     1.007825032070
           H          1.718525169641     6.858048519537     2.367546000143     1.007825032070
           H         -0.455474830359     7.299048519537     4.495546000143     1.007825032070
           H          0.986525169641     6.209048519537     4.634546000143     1.007825032070
           H         -0.946474830359     4.725048519537     4.961546000143     1.007825032070
           H        -12.355474830359     2.894048519537     5.313546000143     1.007825032070
           H        -12.047474830359    -0.046951480463     5.920546000143     1.007825032070
           H        -12.648474830359     0.655048519537     4.453546000143     1.007825032070
           H          1.068525169641     4.444048519537    -4.904453999857     1.007825032070
           H         -0.067474830359     5.618048519537    -2.381453999857     1.007825032070
           H         -0.067474830359     2.686048519537    -3.218453999857     1.007825032070
           H         -1.428474830359     3.868048519537    -3.400453999857     1.007825032070
           H         -0.054474830359     3.194048519537     0.227546000143     1.007825032070
           H          1.522525169641     4.794048519537     0.495546000143     1.007825032070
           H          1.223525169641     3.654048519537     2.509546000143     1.007825032070
           H          3.000525169641     3.590048519537     2.695546000143     1.007825032070
           H          3.184525169641    -1.903951480463     0.715546000143     1.007825032070
           H          5.810525169641    -1.312951480463    -0.344453999857     1.007825032070
           H          6.383525169641    -3.517951480463     0.262546000143     1.007825032070
           H          4.673525169641    -4.010951480463     0.510546000143     1.007825032070
           H          4.700525169641    -4.224951480463     2.752546000143     1.007825032070
           H          2.943525169641    -3.158951480463    -1.500453999857     1.007825032070
           H          4.499525169641    -3.636951480463    -4.051453999857     1.007825032070
           H          3.317525169641    -5.788951480463    -4.255453999857     1.007825032070
           H          2.258525169641    -5.328951480463    -2.893453999857     1.007825032070
           H          2.837525169641    -6.612951480463    -1.147453999857     1.007825032070
           H         -1.250474830359    -2.911951480463    -6.053453999857     1.007825032070
           H         -1.780474830359    -5.796951480463    -6.717453999857     1.007825032070
           H         -3.905474830359    -4.302951480463    -5.084453999857     1.007825032070
           H         -2.676474830359    -7.104951480463    -4.927453999857     1.007825032070
           H         -4.085474830359    -6.653951480463    -5.967453999857     1.007825032070
           H         -4.167474830359    -6.498951480463    -4.188453999857     1.007825032070
           H         -1.386474830359    -5.177951480463    -3.817453999857     1.007825032070
           H         -2.905474830359    -4.660951480463    -2.984453999857     1.007825032070
           H         -1.978474830359    -3.454951480463    -3.949453999857     1.007825032070
           H         -4.063474830359    -5.583951480463     5.271546000143     1.007825032070
           H         -3.738474830359    -3.186951480463     4.673546000143     1.007825032070
           H         -2.311474830359    -3.195951480463     5.742546000143     1.007825032070
           H          2.854525169641     8.442048519537     3.737546000143     1.007825032070
           H          0.503525169641     8.438048519537     0.968546000143     1.007825032070
           H        -12.337474830359     2.140048519537     6.924546000143     1.007825032070
           H         -9.904474830359    -0.112951480463     4.940546000143     1.007825032070
           H          0.155525169641     5.881048519537    -4.745453999857     1.007825032070
           H          2.268525169641     5.307048519537    -1.726453999857     1.007825032070
           H          3.242525169641     4.370048519537     0.408546000143     1.007825032070
           H          2.032525169641     1.677048519537     0.567546000143     1.007825032070
           H          3.405525169641    -0.581951480463    -0.438453999857     1.007825032070
           H          2.370525169641    -3.483951480463    -5.305453999857     1.007825032070
           H         -0.076474830359    -4.147951480463    -6.505453999857     1.007825032070
           H         -3.522474830359    -4.916951480463    -8.120453999857     1.007825032070
           H         -2.297474830359    -5.529951480463     5.260546000143     1.007825032070
           H         -4.809474830359    -2.538951480463     6.717546000143     1.007825032070

  Running in c1 symmetry.

  Rotational constants: A =      0.00083  B =      0.00061  C =      0.00051 [cm^-1]
  Rotational constants: A =     24.83034  B =     18.39626  C =     15.29315 [MHz]
  Nuclear repulsion = 6201.543659593415214

  Charge       = 0
  Multiplicity = 1
  Electrons    = 398
  Nalpha       = 199
  Nbeta        = 199

  ==> Algorithm <==

  SCF Algorithm Type is DF.
  DIIS enabled.
  MOM disabled.
  Fractional occupation disabled.
  Guess Type is SAD.
  Energy threshold   = 1.00e-06
  Density threshold  = 1.00e-06
  Integral threshold = 0.00e+00

  ==> Primary Basis <==

  Basis Set: AUG-CC-PVQZ
    Blend: AUG-CC-PVQZ
    Number of shells: 1748
    Number of basis function: 6472
    Number of Cartesian functions: 8215
    Spherical Harmonics?: true
    Max angular momentum: 4

   => Loading Basis Set <=

    Name: (AUG-CC-PVQZ AUX)
    Role: JKFIT
    Keyword: DF_BASIS_SCF
    atoms 1, 9, 13, 21, 25, 33, 41, 48                                                          entry N          line   248 file /theoryfs2/ds/schieber/Gits/mspsi4/objdir3/stage/usr/local/psi4/share/psi4/basis/aug-cc-pvqz-jkfit.gbs 
    atoms 2-3, 5-6, 10-11, 14-15, 17-18, 22-23, 26-27, 29-30, 34-35, 37-38, 42-43, 45-47, 49-50 entry C          line   178 file /theoryfs2/ds/schieber/Gits/mspsi4/objdir3/stage/usr/local/psi4/share/psi4/basis/aug-cc-pvqz-jkfit.gbs 
    atoms 4, 7-8, 12, 16, 19-20, 24, 28, 31-32, 36, 39-40, 44, 51                               entry O          line   318 file /theoryfs2/ds/schieber/Gits/mspsi4/objdir3/stage/usr/local/psi4/share/psi4/basis/aug-cc-pvqz-jkfit.gbs 
    atoms 52-103                                                                                entry H          line    70 file /theoryfs2/ds/schieber/Gits/mspsi4/objdir3/stage/usr/local/psi4/share/psi4/basis/aug-cc-pvqz-jkfit.gbs 

  ==> Pre-Iterations <==

   -------------------------------------------------------
    Irrep   Nso     Nmo     Nalpha   Nbeta   Ndocc  Nsocc
   -------------------------------------------------------
     A       6472    6472       0       0       0       0
   -------------------------------------------------------
    Total    6472    6472     199     199     199       0
   -------------------------------------------------------

  ==> Integral Setup <==

  ==> DFJK: Density-Fitted J/K Matrices <==

    J tasked:                  Yes
    K tasked:                  Yes
    wK tasked:                  No
    OpenMP threads:              6
    Integrals threads:           6
    Memory (MB):             42915
    Algorithm:                Disk
    Integral Cache:           NONE
    Schwarz Cutoff:          1E-12
    Fitting Condition:       1E-12

   => Auxiliary Basis Set <=

  Basis Set: (AUG-CC-PVQZ AUX)
    Blend: AUG-CC-PVQZ-JKFIT
    Number of shells: 2670
    Number of basis function: 11194
    Number of Cartesian functions: 15350
    Spherical Harmonics?: true
    Max angular momentum: 5

  Minimum eigenvalue in the overlap matrix is 9.6057064335E-08.
  Using Canonical Orthogonalization with cutoff of 1.0000000000E-07.
  Overall, 1 of 6472 possible MOs eliminated.

  SCF Guess: Superposition of Atomic Densities via on-the-fly atomic UHF.

  ==> Iterations <==

                           Total Energy        Delta E     RMS |[F,P]|

   @DF-RHF iter   0: -2704.97904650206920   -2.70498e+03   5.14265e-03 
   @DF-RHF iter   1: -2685.22954174871347    1.97495e+01   6.50459e-04 
   @DF-RHF iter   2: -2686.44577985371961   -1.21624e+00   4.39944e-04 DIIS
   @DF-RHF iter   3: -2686.95079075815465   -5.05011e-01   1.08836e-04 DIIS
   @DF-RHF iter   4: -2687.01803625698903   -6.72455e-02   3.79688e-05 DIIS
   @DF-RHF iter   5: -2687.02887103671310   -1.08348e-02   1.55702e-05 DIIS
   @DF-RHF iter   6: -2687.03170025981990   -2.82922e-03   7.51509e-06 DIIS
   @DF-RHF iter   7: -2687.03244872360438   -7.48464e-04   3.18233e-06 DIIS
   @DF-RHF iter   8: -2687.03257919937460   -1.30476e-04   1.52951e-06 DIIS
   @DF-RHF iter   9: -2687.03261107849266   -3.18791e-05   6.93412e-07 DIIS
   @DF-RHF iter  10: -2687.03261922093316   -8.14244e-06   3.20722e-07 DIIS
   @DF-RHF iter  11: -2687.03262121777288   -1.99684e-06   1.30561e-07 DIIS
   @DF-RHF iter  12: -2687.03262151552963   -2.97757e-07   5.76387e-08 DIIS

  ==> Post-Iterations <==

    Orbital Energies (a.u.)
    -----------------------

    Doubly Occupied:                                                      

       1A    -20.653715     2A    -20.643436     3A    -20.633071  
       4A    -20.600100     5A    -20.582046     6A    -20.564768  
       7A    -20.558864     8A    -20.557602     9A    -20.557111  
      10A    -20.557062    11A    -20.550715    12A    -20.549821  
      13A    -20.538030    14A    -20.515808    15A    -20.512740  
      16A    -20.511122    17A    -15.597153    18A    -15.557888  
      19A    -15.549995    20A    -15.546748    21A    -15.545278  
      22A    -15.543134    23A    -15.540901    24A    -15.539528  
      25A    -11.412064    26A    -11.395588    27A    -11.378735  
      28A    -11.363813    29A    -11.356913    30A    -11.342040  
      31A    -11.339470    32A    -11.336720    33A    -11.335470  
      34A    -11.333692    35A    -11.330750    36A    -11.330138  
      37A    -11.309569    38A    -11.295574    39A    -11.287900  
      40A    -11.286146    41A    -11.280204    42A    -11.276230  
      43A    -11.275404    44A    -11.274108    45A    -11.273728  
      46A    -11.263612    47A    -11.259032    48A    -11.235466  
      49A    -11.230191    50A    -11.228936    51A    -11.217822  
      52A     -1.527595    53A     -1.523909    54A     -1.510391  
      55A     -1.497511    56A     -1.416259    57A     -1.394964  
      58A     -1.391122    59A     -1.389110    60A     -1.382729  
      61A     -1.377665    62A     -1.372616    63A     -1.367641  
      64A     -1.356901    65A     -1.356455    66A     -1.336776  
      67A     -1.330880    68A     -1.254299    69A     -1.213805  
      70A     -1.200634    71A     -1.191155    72A     -1.187442  
      73A     -1.184232    74A     -1.182372    75A     -1.170937  
      76A     -1.098557    77A     -1.085630    78A     -1.055352  
      79A     -1.051933    80A     -1.041535    81A     -0.978158  
      82A     -0.970215    83A     -0.969556    84A     -0.969325  
      85A     -0.964088    86A     -0.949745    87A     -0.935652  
      88A     -0.935388    89A     -0.929158    90A     -0.910906  
      91A     -0.906638    92A     -0.887088    93A     -0.873625  
      94A     -0.831153    95A     -0.812212    96A     -0.809635  
      97A     -0.802629    98A     -0.799360    99A     -0.797055  
     100A     -0.796589   101A     -0.793749   102A     -0.766504  
     103A     -0.752596   104A     -0.747686   105A     -0.733711  
     106A     -0.730360   107A     -0.718512   108A     -0.717863  
     109A     -0.714217   110A     -0.709093   111A     -0.705031  
     112A     -0.701225   113A     -0.701144   114A     -0.698675  
     115A     -0.695986   116A     -0.694397   117A     -0.692224  
     118A     -0.687798   119A     -0.685128   120A     -0.683556  
     121A     -0.680790   122A     -0.667516   123A     -0.665748  
     124A     -0.663063   125A     -0.660647   126A     -0.658740  
     127A     -0.656388   128A     -0.655673   129A     -0.652297  
     130A     -0.651411   131A     -0.643375   132A     -0.641142  
     133A     -0.638554   134A     -0.631002   135A     -0.630907  
     136A     -0.629719   137A     -0.629567   138A     -0.628595  
     139A     -0.628270   140A     -0.628082   141A     -0.620798  
     142A     -0.612888   143A     -0.611449   144A     -0.607495  
     145A     -0.599939   146A     -0.591840   147A     -0.589850  
     148A     -0.577367   149A     -0.576899   150A     -0.573661  
     151A     -0.573376   152A     -0.565313   153A     -0.562764  
     154A     -0.561152   155A     -0.557012   156A     -0.556998  
     157A     -0.554399   158A     -0.551346   159A     -0.543818  
     160A     -0.537210   161A     -0.532432   162A     -0.531444  
     163A     -0.528493   164A     -0.526305   165A     -0.523952  
     166A     -0.519155   167A     -0.515962   168A     -0.515224  
     169A     -0.504842   170A     -0.503307   171A     -0.492244  
     172A     -0.491819   173A     -0.488335   174A     -0.482123  
     175A     -0.481930   176A     -0.474246   177A     -0.466231  
     178A     -0.462162   179A     -0.456932   180A     -0.455264  
     181A     -0.451359   182A     -0.447364   183A     -0.446773  
     184A     -0.444508   185A     -0.443319   186A     -0.442888  
     187A     -0.439344   188A     -0.434960   189A     -0.433598  
     190A     -0.433262   191A     -0.429467   192A     -0.408002  
     193A     -0.386196   194A     -0.381432   195A     -0.375940  
     196A     -0.374869   197A     -0.374235   198A     -0.371426  
     199A     -0.365794  

    Virtual:                                                              

     200A     -0.000038   201A      0.012065   202A      0.012778  
     203A      0.017606   204A      0.019303   205A      0.021658  
     206A      0.023597   207A      0.024725   208A      0.026771  
     209A      0.030046   210A      0.031567   211A      0.033224  
     212A      0.034114   213A      0.035134   214A      0.036180  
     215A      0.037218   216A      0.038988   217A      0.039817  
     218A      0.041182   219A      0.044964   220A      0.046010  
     221A      0.047047   222A      0.047586   223A      0.049618  
     224A      0.050698   225A      0.050895   226A      0.053736  
     227A      0.055036   228A      0.056566   229A      0.057964  
     230A      0.059312   231A      0.059817   232A      0.060447  
     233A      0.060959   234A      0.063388   235A      0.063825  
     236A      0.064892   237A      0.067893   238A      0.069204  
     239A      0.070906   240A      0.072129   241A      0.072925  
     242A      0.074039   243A      0.074257   244A      0.076313  
     245A      0.077510   246A      0.078719   247A      0.080565  
     248A      0.080987   249A      0.082236   250A      0.083157  
     251A      0.085289   252A      0.085756   253A      0.087306  
     254A      0.087720   255A      0.088770   256A      0.089279  
     257A      0.090279   258A      0.092360   259A      0.093073  
     260A      0.093882   261A      0.095719   262A      0.096561  
     263A      0.097641   264A      0.098171   265A      0.099223  
     266A      0.100288   267A      0.100968   268A      0.101684  
     269A      0.102179   270A      0.104435   271A      0.104717  
     272A      0.105119   273A      0.106109   274A      0.107368  
     275A      0.108995   276A      0.110382   277A      0.110609  
     278A      0.111729   279A      0.113108   280A      0.114214  
     281A      0.115471   282A      0.115985   283A      0.117106  
     284A      0.117542   285A      0.119084   286A      0.119880  
     287A      0.120480   288A      0.120910   289A      0.121455  
     290A      0.122426   291A      0.123282   292A      0.124250  
     293A      0.125084   294A      0.125367   295A      0.126013  
     296A      0.126807   297A      0.127195   298A      0.128171  
     299A      0.128580   300A      0.129371   301A      0.130236  
     302A      0.131389   303A      0.132541   304A      0.134067  
     305A      0.134556   306A      0.135581   307A      0.135809  
     308A      0.136450   309A      0.138252   310A      0.139449  
     311A      0.139895   312A      0.140143   313A      0.141481  
     314A      0.142513   315A      0.143194   316A      0.145727  
     317A      0.146881   318A      0.147235   319A      0.148729  
     320A      0.149089   321A      0.150010   322A      0.150800  
     323A      0.151345   324A      0.152291   325A      0.153821  
     326A      0.154034   327A      0.155208   328A      0.155880  
     329A      0.157105   330A      0.157624   331A      0.158304  
     332A      0.160385   333A      0.160916   334A      0.161891  
     335A      0.163464   336A      0.164226   337A      0.164744  
     338A      0.165371   339A      0.166264   340A      0.167366  
     341A      0.167913   342A      0.168685   343A      0.169655  
     344A      0.170916   345A      0.171690   346A      0.172875  
     347A      0.174265   348A      0.174455   349A      0.175231  
     350A      0.176520   351A      0.177814   352A      0.178329  
     353A      0.179270   354A      0.180199   355A      0.180672  
     356A      0.182861   357A      0.184052   358A      0.184572  
     359A      0.186037   360A      0.186869   361A      0.188535  
     362A      0.189044   363A      0.189825   364A      0.190617  
     365A      0.192360   366A      0.192963   367A      0.194702  
     368A      0.195819   369A      0.196065   370A      0.197446  
     371A      0.198524   372A      0.199229   373A      0.200092  
     374A      0.201206   375A      0.201789   376A      0.202955  
     377A      0.203064   378A      0.204105   379A      0.204514  
     380A      0.206206   381A      0.206881   382A      0.207521  
     383A      0.209218   384A      0.209820   385A      0.211569  
     386A      0.211929   387A      0.213674   388A      0.214437  
     389A      0.214808   390A      0.216595   391A      0.216824  
     392A      0.218040   393A      0.219421   394A      0.220331  
     395A      0.220770   396A      0.222108   397A      0.222622  
     398A      0.223273   399A      0.224332   400A      0.225891  
     401A      0.227322   402A      0.228731   403A      0.230029  
     404A      0.230980   405A      0.231623   406A      0.232457  
     407A      0.232784   408A      0.234005   409A      0.235535  
     410A      0.236148   411A      0.236730   412A      0.237850  
     413A      0.238745   414A      0.240088   415A      0.240898  
     416A      0.242193   417A      0.243194   418A      0.245420  
     419A      0.245802   420A      0.246352   421A      0.247383  
     422A      0.248091   423A      0.248448   424A      0.249649  
     425A      0.250241   426A      0.251185   427A      0.251523  
     428A      0.252260   429A      0.253179   430A      0.255012  
     431A      0.255292   432A      0.256056   433A      0.256310  
     434A      0.256752   435A      0.258249   436A      0.258646  
     437A      0.259230   438A      0.260724   439A      0.261967  
     440A      0.263469   441A      0.263658   442A      0.264283  
     443A      0.265498   444A      0.266174   445A      0.267251  
     446A      0.267617   447A      0.268635   448A      0.269778  
     449A      0.270126   450A      0.270901   451A      0.271063  
     452A      0.271751   453A      0.273388   454A      0.273862  
     455A      0.274185   456A      0.276078   457A      0.277131  
     458A      0.277671   459A      0.279570   460A      0.279838  
     461A      0.280736   462A      0.281536   463A      0.283462  
     464A      0.284291   465A      0.285809   466A      0.286443  
     467A      0.286990   468A      0.287355   469A      0.288189  
     470A      0.289342   471A      0.290400   472A      0.290713  
     473A      0.291068   474A      0.292119   475A      0.292876  
     476A      0.293985   477A      0.294985   478A      0.295820  
     479A      0.295931   480A      0.297407   481A      0.298207  
     482A      0.298594   483A      0.298777   484A      0.300061  
     485A      0.301006   486A      0.301656   487A      0.302409  
     488A      0.303302   489A      0.304291   490A      0.304847  
     491A      0.305254   492A      0.307438   493A      0.307769  
     494A      0.308151   495A      0.308663   496A      0.310509  
     497A      0.310747   498A      0.311267   499A      0.311630  
     500A      0.312643   501A      0.314516   502A      0.315482  
     503A      0.316267   504A      0.316482   505A      0.317415  
     506A      0.318525   507A      0.319666   508A      0.319959  
     509A      0.320850   510A      0.321543   511A      0.321893  
     512A      0.322341   513A      0.323496   514A      0.324092  
     515A      0.324703   516A      0.325331   517A      0.326935  
     518A      0.327580   519A      0.329004   520A      0.330224  
     521A      0.331213   522A      0.331792   523A      0.332504  
     524A      0.333832   525A      0.334316   526A      0.335020  
     527A      0.335403   528A      0.336683   529A      0.336940  
     530A      0.338521   531A      0.339115   532A      0.339968  
     533A      0.340494   534A      0.341101   535A      0.341485  
     536A      0.342964   537A      0.343193   538A      0.344768  
     539A      0.346321   540A      0.347286   541A      0.348290  
     542A      0.349075   543A      0.350256   544A      0.350613  
     545A      0.351333   546A      0.352687   547A      0.354287  
     548A      0.354476   549A      0.355178   550A      0.356197  
     551A      0.357151   552A      0.357391   553A      0.357947  
     554A      0.358479   555A      0.359407   556A      0.360009  
     557A      0.361078   558A      0.361341   559A      0.362900  
     560A      0.363520   561A      0.364903   562A      0.365643  
     563A      0.366654   564A      0.367193   565A      0.367962  
     566A      0.368613   567A      0.370815   568A      0.371234  
     569A      0.372070   570A      0.372841   571A      0.373147  
     572A      0.374525   573A      0.375673   574A      0.376449  
     575A      0.377075   576A      0.377805   577A      0.378106  
     578A      0.379760   579A      0.380636   580A      0.381517  
     581A      0.382390   582A      0.383087   583A      0.383530  
     584A      0.384259   585A      0.386097   586A      0.386299  
     587A      0.387827   588A      0.387859   589A      0.389156  
     590A      0.390062   591A      0.391081   592A      0.391706  
     593A      0.392613   594A      0.392916   595A      0.394121  
     596A      0.395465   597A      0.396498   598A      0.397075  
     599A      0.398037   600A      0.398575   601A      0.399419  
     602A      0.400109   603A      0.400897   604A      0.402109  
     605A      0.403064   606A      0.404305   607A      0.404781  
     608A      0.405739   609A      0.406863   610A      0.407319  
     611A      0.407743   612A      0.408422   613A      0.410663  
     614A      0.411142   615A      0.411923   616A      0.412834  
     617A      0.414037   618A      0.414579   619A      0.416044  
     620A      0.416999   621A      0.417614   622A      0.418421  
     623A      0.418562   624A      0.419902   625A      0.421623  
     626A      0.422323   627A      0.422870   628A      0.423549  
     629A      0.424751   630A      0.425284   631A      0.427121  
     632A      0.427695   633A      0.428370   634A      0.428848  
     635A      0.429857   636A      0.429937   637A      0.430838  
     638A      0.431536   639A      0.431849   640A      0.432935  
     641A      0.433951   642A      0.434579   643A      0.435356  
     644A      0.436290   645A      0.436926   646A      0.437348  
     647A      0.438596   648A      0.438992   649A      0.439915  
     650A      0.440830   651A      0.441658   652A      0.442597  
     653A      0.443255   654A      0.444240   655A      0.444979  
     656A      0.445600   657A      0.445812   658A      0.446655  
     659A      0.449338   660A      0.449747   661A      0.450154  
     662A      0.450746   663A      0.451797   664A      0.453079  
     665A      0.453489   666A      0.455000   667A      0.456338  
     668A      0.457840   669A      0.458044   670A      0.458419  
     671A      0.459908   672A      0.461338   673A      0.461563  
     674A      0.462342   675A      0.463794   676A      0.463852  
     677A      0.464222   678A      0.465099   679A      0.466187  
     680A      0.467524   681A      0.468765   682A      0.469220  
     683A      0.469754   684A      0.470938   685A      0.471893  
     686A      0.472294   687A      0.474285   688A      0.475102  
     689A      0.475287   690A      0.476588   691A      0.477006  
     692A      0.478384   693A      0.478820   694A      0.479935  
     695A      0.481301   696A      0.482662   697A      0.483106  
     698A      0.483868   699A      0.484931   700A      0.485350  
     701A      0.486726   702A      0.486780   703A      0.487704  
     704A      0.488067   705A      0.490101   706A      0.491583  
     707A      0.491949   708A      0.492851   709A      0.493190  
     710A      0.493727   711A      0.494929   712A      0.496372  
     713A      0.497077   714A      0.497331   715A      0.497990  
     716A      0.500382   717A      0.500441   718A      0.500779  
     719A      0.502460   720A      0.503040   721A      0.503753  
     722A      0.504402   723A      0.505493   724A      0.506153  
     725A      0.506798   726A      0.507288   727A      0.508935  
     728A      0.509404   729A      0.510711   730A      0.511258  
     731A      0.512255   732A      0.512705   733A      0.514015  
     734A      0.515970   735A      0.516667   736A      0.517595  
     737A      0.518352   738A      0.519323   739A      0.519601  
     740A      0.521164   741A      0.521867   742A      0.523649  
     743A      0.523733   744A      0.524840   745A      0.525615  
     746A      0.526303   747A      0.527096   748A      0.528263  
     749A      0.528816   750A      0.529657   751A      0.530788  
     752A      0.532113   753A      0.533537   754A      0.533956  
     755A      0.535058   756A      0.535785   757A      0.537280  
     758A      0.538913   759A      0.539710   760A      0.540273  
     761A      0.540977   762A      0.541343   763A      0.541992  
     764A      0.543263   765A      0.544236   766A      0.544447  
     767A      0.546394   768A      0.547454   769A      0.548692  
     770A      0.549657   771A      0.550307   772A      0.550831  
     773A      0.552181   774A      0.552746   775A      0.553564  
     776A      0.554594   777A      0.556187   778A      0.557165  
     779A      0.557928   780A      0.558500   781A      0.559488  
     782A      0.560551   783A      0.562067   784A      0.562454  
     785A      0.564375   786A      0.565445   787A      0.565498  
     788A      0.566685   789A      0.566962   790A      0.569392  
     791A      0.569787   792A      0.571053   793A      0.571312  
     794A      0.572411   795A      0.572797   796A      0.574752  
     797A      0.575455   798A      0.576454   799A      0.577835  
     800A      0.579245   801A      0.579562   802A      0.581357  
     803A      0.583002   804A      0.583090   805A      0.585109  
     806A      0.585584   807A      0.586087   808A      0.587153  
     809A      0.587455   810A      0.588209   811A      0.589080  
     812A      0.590730   813A      0.591303   814A      0.591705  
     815A      0.592629   816A      0.593770   817A      0.595555  
     818A      0.595904   819A      0.597259   820A      0.598816  
     821A      0.600601   822A      0.601737   823A      0.602808  
     824A      0.604026   825A      0.605711   826A      0.606652  
     827A      0.607710   828A      0.608858   829A      0.609603  
     830A      0.611203   831A      0.613122   832A      0.613789  
     833A      0.614798   834A      0.615309   835A      0.615791  
     836A      0.616971   837A      0.617929   838A      0.618352  
     839A      0.620917   840A      0.622217   841A      0.623301  
     842A      0.623508   843A      0.625008   844A      0.625603  
     845A      0.626817   846A      0.626865   847A      0.628886  
     848A      0.629233   849A      0.630321   850A      0.631950  
     851A      0.632595   852A      0.633206   853A      0.634461  
     854A      0.635416   855A      0.636889   856A      0.637546  
     857A      0.638398   858A      0.639333   859A      0.640455  
     860A      0.641938   861A      0.643080   862A      0.643248  
     863A      0.644554   864A      0.645121   865A      0.646357  
     866A      0.647024   867A      0.647691   868A      0.648416  
     869A      0.649646   870A      0.650588   871A      0.650950  
     872A      0.652833   873A      0.653090   874A      0.653893  
     875A      0.655206   876A      0.656479   877A      0.656803  
     878A      0.658689   879A      0.658901   880A      0.660386  
     881A      0.660861   882A      0.662298   883A      0.662414  
     884A      0.664534   885A      0.666542   886A      0.666744  
     887A      0.667465   888A      0.668262   889A      0.668862  
     890A      0.669433   891A      0.670270   892A      0.670566  
     893A      0.671813   894A      0.673639   895A      0.673940  
     896A      0.674606   897A      0.676573   898A      0.677218  
     899A      0.677679   900A      0.678228   901A      0.679072  
     902A      0.680894   903A      0.681183   904A      0.682452  
     905A      0.683057   906A      0.683829   907A      0.685374  
     908A      0.686064   909A      0.686799   910A      0.688105  
     911A      0.688796   912A      0.689733   913A      0.690737  
     914A      0.692129   915A      0.693377   916A      0.694068  
     917A      0.694474   918A      0.695368   919A      0.695783  
     920A      0.696817   921A      0.697495   922A      0.698924  
     923A      0.700450   924A      0.700738   925A      0.701198  
     926A      0.702135   927A      0.703821   928A      0.704550  
     929A      0.705174   930A      0.706032   931A      0.707458  
     932A      0.707773   933A      0.709879   934A      0.710280  
     935A      0.711587   936A      0.712586   937A      0.712726  
     938A      0.713969   939A      0.714925   940A      0.716190  
     941A      0.717302   942A      0.717545   943A      0.718842  
     944A      0.720404   945A      0.721154   946A      0.722404  
     947A      0.723056   948A      0.723644   949A      0.723785  
     950A      0.724707   951A      0.727019   952A      0.728001  
     953A      0.728210   954A      0.729073   955A      0.729357  
     956A      0.731238   957A      0.731906   958A      0.732540  
     959A      0.733579   960A      0.734430   961A      0.735858  
     962A      0.736363   963A      0.737155   964A      0.737895  
     965A      0.739090   966A      0.739426   967A      0.739681  
     968A      0.741328   969A      0.741591   970A      0.742608  
     971A      0.743581   972A      0.743744   973A      0.745102  
     974A      0.746032   975A      0.746881   976A      0.747901  
     977A      0.748423   978A      0.749451   979A      0.749987  
     980A      0.751063   981A      0.751371   982A      0.752388  
     983A      0.753451   984A      0.754217   985A      0.755251  
     986A      0.756959   987A      0.757980   988A      0.758950  
     989A      0.759446   990A      0.760540   991A      0.760974  
     992A      0.762779   993A      0.763409   994A      0.763936  
     995A      0.765117   996A      0.766969   997A      0.767433  
     998A      0.767991   999A      0.768738  1000A      0.770367  
    1001A      0.771699  1002A      0.772820  1003A      0.773704  
    1004A      0.774231  1005A      0.774775  1006A      0.775751  
    1007A      0.776959  1008A      0.777543  1009A      0.778310  
    1010A      0.779115  1011A      0.780050  1012A      0.781130  
    1013A      0.781741  1014A      0.781896  1015A      0.782626  
    1016A      0.783736  1017A      0.784254  1018A      0.785073  
    1019A      0.785633  1020A      0.786057  1021A      0.787767  
    1022A      0.788216  1023A      0.788990  1024A      0.789829  
    1025A      0.791715  1026A      0.792266  1027A      0.792601  
    1028A      0.793434  1029A      0.793791  1030A      0.794106  
    1031A      0.795362  1032A      0.796309  1033A      0.797717  
    1034A      0.798958  1035A      0.800015  1036A      0.800245  
    1037A      0.801066  1038A      0.802717  1039A      0.803417  
    1040A      0.804356  1041A      0.804956  1042A      0.805942  
    1043A      0.807026  1044A      0.807227  1045A      0.807981  
    1046A      0.810678  1047A      0.811541  1048A      0.812551  
    1049A      0.813397  1050A      0.813841  1051A      0.814629  
    1052A      0.815479  1053A      0.816749  1054A      0.818166  
    1055A      0.819237  1056A      0.819881  1057A      0.820953  
    1058A      0.821468  1059A      0.822189  1060A      0.823549  
    1061A      0.824425  1062A      0.825534  1063A      0.825970  
    1064A      0.826379  1065A      0.826980  1066A      0.827466  
    1067A      0.828847  1068A      0.830327  1069A      0.831161  
    1070A      0.831734  1071A      0.833822  1072A      0.834264  
    1073A      0.835557  1074A      0.835597  1075A      0.837018  
    1076A      0.838279  1077A      0.840267  1078A      0.841242  
    1079A      0.842186  1080A      0.842699  1081A      0.843041  
    1082A      0.843394  1083A      0.844490  1084A      0.845466  
    1085A      0.845957  1086A      0.846944  1087A      0.847929  
    1088A      0.848823  1089A      0.850603  1090A      0.851155  
    1091A      0.852703  1092A      0.853104  1093A      0.854262  
    1094A      0.855181  1095A      0.856975  1096A      0.857184  
    1097A      0.858520  1098A      0.859756  1099A      0.860454  
    1100A      0.861550  1101A      0.862909  1102A      0.863656  
    1103A      0.863899  1104A      0.865075  1105A      0.865545  
    1106A      0.865901  1107A      0.868201  1108A      0.868870  
    1109A      0.869595  1110A      0.870424  1111A      0.872095  
    1112A      0.872654  1113A      0.873345  1114A      0.874243  
    1115A      0.875519  1116A      0.875967  1117A      0.877488  
    1118A      0.878082  1119A      0.878660  1120A      0.880393  
    1121A      0.881283  1122A      0.882063  1123A      0.883171  
    1124A      0.883774  1125A      0.884437  1126A      0.885663  
    1127A      0.886133  1128A      0.887209  1129A      0.888127  
    1130A      0.889612  1131A      0.891255  1132A      0.892089  
    1133A      0.892374  1134A      0.892691  1135A      0.894411  
    1136A      0.894707  1137A      0.895109  1138A      0.896575  
    1139A      0.897973  1140A      0.899200  1141A      0.900378  
    1142A      0.901186  1143A      0.902226  1144A      0.902719  
    1145A      0.904291  1146A      0.906127  1147A      0.906769  
    1148A      0.907403  1149A      0.907621  1150A      0.908184  
    1151A      0.909976  1152A      0.911319  1153A      0.913205  
    1154A      0.913354  1155A      0.914182  1156A      0.915482  
    1157A      0.915893  1158A      0.916277  1159A      0.917143  
    1160A      0.918607  1161A      0.920568  1162A      0.920797  
    1163A      0.921307  1164A      0.922372  1165A      0.922734  
    1166A      0.924091  1167A      0.924823  1168A      0.925557  
    1169A      0.926209  1170A      0.927381  1171A      0.928457  
    1172A      0.929510  1173A      0.931266  1174A      0.931915  
    1175A      0.932171  1176A      0.933459  1177A      0.933649  
    1178A      0.934334  1179A      0.935629  1180A      0.937377  
    1181A      0.937721  1182A      0.938340  1183A      0.939080  
    1184A      0.940056  1185A      0.940674  1186A      0.941761  
    1187A      0.942386  1188A      0.943921  1189A      0.945646  
    1190A      0.947254  1191A      0.948504  1192A      0.949353  
    1193A      0.950834  1194A      0.951502  1195A      0.952333  
    1196A      0.953078  1197A      0.953620  1198A      0.955485  
    1199A      0.956352  1200A      0.957231  1201A      0.958064  
    1202A      0.959076  1203A      0.959417  1204A      0.960565  
    1205A      0.962224  1206A      0.964179  1207A      0.964341  
    1208A      0.964867  1209A      0.965710  1210A      0.967209  
    1211A      0.967772  1212A      0.967965  1213A      0.968458  
    1214A      0.969478  1215A      0.970400  1216A      0.972223  
    1217A      0.973284  1218A      0.974892  1219A      0.976429  
    1220A      0.977977  1221A      0.978207  1222A      0.978760  
    1223A      0.979168  1224A      0.979750  1225A      0.980881  
    1226A      0.982915  1227A      0.983956  1228A      0.984362  
    1229A      0.985886  1230A      0.986547  1231A      0.986747  
    1232A      0.987925  1233A      0.988637  1234A      0.990503  
    1235A      0.992417  1236A      0.993462  1237A      0.995555  
    1238A      0.996630  1239A      0.997854  1240A      0.998368  
    1241A      0.998697  1242A      0.999025  1243A      1.000729  
    1244A      1.001162  1245A      1.002637  1246A      1.003513  
    1247A      1.003732  1248A      1.004619  1249A      1.005826  
    1250A      1.006837  1251A      1.007453  1252A      1.008631  
    1253A      1.010659  1254A      1.011316  1255A      1.011780  
    1256A      1.012482  1257A      1.013989  1258A      1.014990  
    1259A      1.016589  1260A      1.017098  1261A      1.018790  
    1262A      1.019690  1263A      1.020694  1264A      1.021089  
    1265A      1.022867  1266A      1.023691  1267A      1.023963  
    1268A      1.026025  1269A      1.026939  1270A      1.027397  
    1271A      1.029376  1272A      1.031214  1273A      1.031537  
    1274A      1.032328  1275A      1.034021  1276A      1.035130  
    1277A      1.035954  1278A      1.036805  1279A      1.038261  
    1280A      1.038664  1281A      1.040388  1282A      1.040657  
    1283A      1.041871  1284A      1.042431  1285A      1.044022  
    1286A      1.044722  1287A      1.045813  1288A      1.046379  
    1289A      1.048420  1290A      1.048770  1291A      1.049929  
    1292A      1.050675  1293A      1.052756  1294A      1.053977  
    1295A      1.055209  1296A      1.056407  1297A      1.057316  
    1298A      1.058017  1299A      1.058359  1300A      1.059646  
    1301A      1.059955  1302A      1.061259  1303A      1.063668  
    1304A      1.063883  1305A      1.065888  1306A      1.067192  
    1307A      1.068102  1308A      1.068359  1309A      1.069549  
    1310A      1.070298  1311A      1.071552  1312A      1.072352  
    1313A      1.072911  1314A      1.073662  1315A      1.075443  
    1316A      1.077008  1317A      1.077774  1318A      1.078045  
    1319A      1.078975  1320A      1.080126  1321A      1.081146  
    1322A      1.081790  1323A      1.082519  1324A      1.084718  
    1325A      1.085255  1326A      1.085649  1327A      1.087251  
    1328A      1.088726  1329A      1.090196  1330A      1.090814  
    1331A      1.090944  1332A      1.092181  1333A      1.093957  
    1334A      1.094940  1335A      1.097322  1336A      1.097689  
    1337A      1.097947  1338A      1.099527  1339A      1.100337  
    1340A      1.102116  1341A      1.103064  1342A      1.105127  
    1343A      1.105860  1344A      1.106818  1345A      1.108542  
    1346A      1.109728  1347A      1.110475  1348A      1.110928  
    1349A      1.111825  1350A      1.114291  1351A      1.114508  
    1352A      1.114985  1353A      1.116319  1354A      1.118109  
    1355A      1.119152  1356A      1.120019  1357A      1.120386  
    1358A      1.121421  1359A      1.122960  1360A      1.124295  
    1361A      1.126110  1362A      1.128485  1363A      1.128640  
    1364A      1.129280  1365A      1.130765  1366A      1.131480  
    1367A      1.131950  1368A      1.133174  1369A      1.134529  
    1370A      1.136366  1371A      1.136822  1372A      1.137475  
    1373A      1.138717  1374A      1.139863  1375A      1.140089  
    1376A      1.141333  1377A      1.141955  1378A      1.144766  
    1379A      1.146055  1380A      1.146530  1381A      1.147386  
    1382A      1.147806  1383A      1.150063  1384A      1.151636  
    1385A      1.153639  1386A      1.154406  1387A      1.155090  
    1388A      1.155739  1389A      1.157152  1390A      1.157336  
    1391A      1.159551  1392A      1.160526  1393A      1.161611  
    1394A      1.161895  1395A      1.163260  1396A      1.163368  
    1397A      1.164269  1398A      1.165724  1399A      1.167110  
    1400A      1.167961  1401A      1.169681  1402A      1.170507  
    1403A      1.172874  1404A      1.173135  1405A      1.174366  
    1406A      1.175406  1407A      1.176024  1408A      1.178092  
    1409A      1.178384  1410A      1.178985  1411A      1.181658  
    1412A      1.183083  1413A      1.184468  1414A      1.185053  
    1415A      1.185354  1416A      1.187164  1417A      1.188681  
    1418A      1.189636  1419A      1.190019  1420A      1.190786  
    1421A      1.193308  1422A      1.195183  1423A      1.196008  
    1424A      1.197240  1425A      1.198701  1426A      1.199314  
    1427A      1.200466  1428A      1.201562  1429A      1.203018  
    1430A      1.203282  1431A      1.204627  1432A      1.206472  
    1433A      1.206702  1434A      1.207471  1435A      1.208487  
    1436A      1.209882  1437A      1.210511  1438A      1.211743  
    1439A      1.212988  1440A      1.214079  1441A      1.214683  
    1442A      1.216470  1443A      1.217538  1444A      1.217873  
    1445A      1.219130  1446A      1.220917  1447A      1.221522  
    1448A      1.222836  1449A      1.223591  1450A      1.224859  
    1451A      1.225612  1452A      1.227458  1453A      1.228671  
    1454A      1.229654  1455A      1.230628  1456A      1.231068  
    1457A      1.233136  1458A      1.233648  1459A      1.234067  
    1460A      1.234310  1461A      1.236398  1462A      1.236946  
    1463A      1.237901  1464A      1.238669  1465A      1.239072  
    1466A      1.241372  1467A      1.242256  1468A      1.244207  
    1469A      1.245397  1470A      1.246342  1471A      1.247253  
    1472A      1.248033  1473A      1.248441  1474A      1.248781  
    1475A      1.249701  1476A      1.250670  1477A      1.252009  
    1478A      1.253483  1479A      1.255766  1480A      1.256014  
    1481A      1.258927  1482A      1.259481  1483A      1.261074  
    1484A      1.262154  1485A      1.263196  1486A      1.265249  
    1487A      1.267010  1488A      1.267455  1489A      1.269344  
    1490A      1.270029  1491A      1.270742  1492A      1.271673  
    1493A      1.273018  1494A      1.273825  1495A      1.274352  
    1496A      1.275495  1497A      1.276246  1498A      1.276578  
    1499A      1.279085  1500A      1.279395  1501A      1.280103  
    1502A      1.281448  1503A      1.282825  1504A      1.283832  
    1505A      1.284707  1506A      1.285429  1507A      1.286095  
    1508A      1.286994  1509A      1.289890  1510A      1.291484  
    1511A      1.291620  1512A      1.292615  1513A      1.293571  
    1514A      1.295321  1515A      1.296844  1516A      1.298496  
    1517A      1.299706  1518A      1.300742  1519A      1.301417  
    1520A      1.301911  1521A      1.302577  1522A      1.304039  
    1523A      1.304700  1524A      1.305987  1525A      1.306996  
    1526A      1.308415  1527A      1.311104  1528A      1.311722  
    1529A      1.312583  1530A      1.313179  1531A      1.314841  
    1532A      1.315919  1533A      1.316887  1534A      1.319463  
    1535A      1.320811  1536A      1.321118  1537A      1.322404  
    1538A      1.323524  1539A      1.324377  1540A      1.325959  
    1541A      1.326851  1542A      1.328067  1543A      1.329207  
    1544A      1.331248  1545A      1.331817  1546A      1.334063  
    1547A      1.334519  1548A      1.335395  1549A      1.336826  
    1550A      1.338627  1551A      1.339834  1552A      1.341845  
    1553A      1.342876  1554A      1.343634  1555A      1.344640  
    1556A      1.346481  1557A      1.347102  1558A      1.347403  
    1559A      1.349355  1560A      1.350758  1561A      1.352488  
    1562A      1.352934  1563A      1.353407  1564A      1.355684  
    1565A      1.357710  1566A      1.358790  1567A      1.359358  
    1568A      1.360078  1569A      1.361207  1570A      1.362721  
    1571A      1.364170  1572A      1.366352  1573A      1.366623  
    1574A      1.367826  1575A      1.368654  1576A      1.368960  
    1577A      1.370414  1578A      1.370948  1579A      1.372024  
    1580A      1.373019  1581A      1.373567  1582A      1.374518  
    1583A      1.376246  1584A      1.379121  1585A      1.379955  
    1586A      1.380562  1587A      1.381748  1588A      1.382570  
    1589A      1.384747  1590A      1.386698  1591A      1.388312  
    1592A      1.389776  1593A      1.391691  1594A      1.392581  
    1595A      1.395689  1596A      1.396954  1597A      1.397606  
    1598A      1.398293  1599A      1.399496  1600A      1.400555  
    1601A      1.401793  1602A      1.402472  1603A      1.403792  
    1604A      1.404790  1605A      1.406279  1606A      1.406663  
    1607A      1.407447  1608A      1.408532  1609A      1.410527  
    1610A      1.411999  1611A      1.413066  1612A      1.413765  
    1613A      1.415996  1614A      1.416883  1615A      1.418867  
    1616A      1.419332  1617A      1.422139  1618A      1.422678  
    1619A      1.424045  1620A      1.425583  1621A      1.426874  
    1622A      1.427883  1623A      1.429645  1624A      1.431040  
    1625A      1.431808  1626A      1.433681  1627A      1.434204  
    1628A      1.434909  1629A      1.435903  1630A      1.437210  
    1631A      1.437595  1632A      1.439477  1633A      1.440342  
    1634A      1.440779  1635A      1.442483  1636A      1.444311  
    1637A      1.445619  1638A      1.447099  1639A      1.447537  
    1640A      1.449044  1641A      1.451079  1642A      1.451473  
    1643A      1.454766  1644A      1.455139  1645A      1.457829  
    1646A      1.458139  1647A      1.459257  1648A      1.459918  
    1649A      1.461728  1650A      1.462648  1651A      1.463291  
    1652A      1.464355  1653A      1.466600  1654A      1.468659  
    1655A      1.469402  1656A      1.469864  1657A      1.471792  
    1658A      1.473358  1659A      1.474830  1660A      1.475868  
    1661A      1.478654  1662A      1.478821  1663A      1.479321  
    1664A      1.481185  1665A      1.481698  1666A      1.484196  
    1667A      1.485108  1668A      1.487462  1669A      1.488014  
    1670A      1.489945  1671A      1.490445  1672A      1.491487  
    1673A      1.492596  1674A      1.493781  1675A      1.496275  
    1676A      1.496706  1677A      1.497995  1678A      1.498574  
    1679A      1.499966  1680A      1.502024  1681A      1.503402  
    1682A      1.503641  1683A      1.503982  1684A      1.505215  
    1685A      1.507171  1686A      1.508553  1687A      1.510456  
    1688A      1.511241  1689A      1.512341  1690A      1.513418  
    1691A      1.515763  1692A      1.516645  1693A      1.520775  
    1694A      1.522073  1695A      1.523819  1696A      1.524647  
    1697A      1.527535  1698A      1.527606  1699A      1.529795  
    1700A      1.530820  1701A      1.531813  1702A      1.532258  
    1703A      1.532886  1704A      1.534793  1705A      1.536430  
    1706A      1.536668  1707A      1.536958  1708A      1.537963  
    1709A      1.539901  1710A      1.541284  1711A      1.542546  
    1712A      1.543846  1713A      1.545267  1714A      1.545499  
    1715A      1.547437  1716A      1.548270  1717A      1.551337  
    1718A      1.551529  1719A      1.553477  1720A      1.554504  
    1721A      1.555798  1722A      1.556370  1723A      1.557556  
    1724A      1.558698  1725A      1.559943  1726A      1.561313  
    1727A      1.563652  1728A      1.564319  1729A      1.565025  
    1730A      1.566312  1731A      1.568958  1732A      1.569368  
    1733A      1.570636  1734A      1.570780  1735A      1.572073  
    1736A      1.572730  1737A      1.573865  1738A      1.574390  
    1739A      1.576183  1740A      1.577967  1741A      1.578715  
    1742A      1.580468  1743A      1.581489  1744A      1.582767  
    1745A      1.583482  1746A      1.586616  1747A      1.586905  
    1748A      1.588491  1749A      1.589230  1750A      1.590909  
    1751A      1.592026  1752A      1.593811  1753A      1.596793  
    1754A      1.597400  1755A      1.597636  1756A      1.598158  
    1757A      1.599351  1758A      1.601375  1759A      1.602319  
    1760A      1.603881  1761A      1.604978  1762A      1.605715  
    1763A      1.606567  1764A      1.607353  1765A      1.608721  
    1766A      1.609321  1767A      1.609966  1768A      1.610832  
    1769A      1.611383  1770A      1.614817  1771A      1.615984  
    1772A      1.616785  1773A      1.620490  1774A      1.621047  
    1775A      1.622069  1776A      1.623261  1777A      1.623752  
    1778A      1.625448  1779A      1.627908  1780A      1.629078  
    1781A      1.630177  1782A      1.631403  1783A      1.632559  
    1784A      1.634180  1785A      1.635101  1786A      1.636046  
    1787A      1.637026  1788A      1.638128  1789A      1.639181  
    1790A      1.640220  1791A      1.641744  1792A      1.643888  
    1793A      1.645807  1794A      1.646237  1795A      1.647247  
    1796A      1.647778  1797A      1.649529  1798A      1.652061  
    1799A      1.653326  1800A      1.653666  1801A      1.655196  
    1802A      1.655354  1803A      1.658965  1804A      1.661070  
    1805A      1.661722  1806A      1.662165  1807A      1.663334  
    1808A      1.665319  1809A      1.666652  1810A      1.668298  
    1811A      1.668613  1812A      1.670963  1813A      1.672362  
    1814A      1.672619  1815A      1.673265  1816A      1.675952  
    1817A      1.676279  1818A      1.677798  1819A      1.678021  
    1820A      1.680195  1821A      1.681227  1822A      1.682179  
    1823A      1.682957  1824A      1.684625  1825A      1.685318  
    1826A      1.685824  1827A      1.687891  1828A      1.689216  
    1829A      1.690667  1830A      1.691874  1831A      1.693231  
    1832A      1.695084  1833A      1.695100  1834A      1.695803  
    1835A      1.699545  1836A      1.700987  1837A      1.702190  
    1838A      1.703913  1839A      1.704769  1840A      1.705622  
    1841A      1.707651  1842A      1.709082  1843A      1.709887  
    1844A      1.713532  1845A      1.713547  1846A      1.715066  
    1847A      1.716083  1848A      1.716588  1849A      1.719319  
    1850A      1.720601  1851A      1.723164  1852A      1.723863  
    1853A      1.725504  1854A      1.727430  1855A      1.728939  
    1856A      1.729477  1857A      1.730070  1858A      1.731006  
    1859A      1.732024  1860A      1.732972  1861A      1.733689  
    1862A      1.734197  1863A      1.735401  1864A      1.737220  
    1865A      1.737532  1866A      1.740795  1867A      1.742244  
    1868A      1.742861  1869A      1.744988  1870A      1.747450  
    1871A      1.748224  1872A      1.749712  1873A      1.749918  
    1874A      1.751321  1875A      1.752362  1876A      1.753369  
    1877A      1.754171  1878A      1.756912  1879A      1.757710  
    1880A      1.759645  1881A      1.761225  1882A      1.762321  
    1883A      1.763758  1884A      1.764187  1885A      1.766092  
    1886A      1.767281  1887A      1.767444  1888A      1.767949  
    1889A      1.769377  1890A      1.771751  1891A      1.772293  
    1892A      1.774131  1893A      1.774896  1894A      1.775831  
    1895A      1.779169  1896A      1.779427  1897A      1.780328  
    1898A      1.780819  1899A      1.782453  1900A      1.783317  
    1901A      1.785232  1902A      1.785349  1903A      1.786498  
    1904A      1.788263  1905A      1.789982  1906A      1.790720  
    1907A      1.793342  1908A      1.795243  1909A      1.795850  
    1910A      1.796298  1911A      1.797151  1912A      1.798664  
    1913A      1.800493  1914A      1.801237  1915A      1.802442  
    1916A      1.803367  1917A      1.803914  1918A      1.805536  
    1919A      1.807316  1920A      1.807779  1921A      1.808841  
    1922A      1.809314  1923A      1.810504  1924A      1.811562  
    1925A      1.814078  1926A      1.814797  1927A      1.816353  
    1928A      1.817066  1929A      1.818314  1930A      1.819024  
    1931A      1.820432  1932A      1.822802  1933A      1.823423  
    1934A      1.824840  1935A      1.825624  1936A      1.826270  
    1937A      1.827851  1938A      1.828788  1939A      1.831160  
    1940A      1.832753  1941A      1.832986  1942A      1.835787  
    1943A      1.837724  1944A      1.838280  1945A      1.838688  
    1946A      1.840257  1947A      1.842365  1948A      1.842753  
    1949A      1.845664  1950A      1.846511  1951A      1.847583  
    1952A      1.848286  1953A      1.848930  1954A      1.849332  
    1955A      1.850938  1956A      1.851645  1957A      1.853819  
    1958A      1.855273  1959A      1.856937  1960A      1.857796  
    1961A      1.858583  1962A      1.859225  1963A      1.859753  
    1964A      1.861263  1965A      1.862308  1966A      1.863071  
    1967A      1.864795  1968A      1.866275  1969A      1.866932  
    1970A      1.867738  1971A      1.869460  1972A      1.870505  
    1973A      1.871836  1974A      1.873969  1975A      1.875295  
    1976A      1.876386  1977A      1.876474  1978A      1.877478  
    1979A      1.878519  1980A      1.880134  1981A      1.880993  
    1982A      1.883233  1983A      1.884131  1984A      1.884645  
    1985A      1.887602  1986A      1.888614  1987A      1.890717  
    1988A      1.891431  1989A      1.892661  1990A      1.893377  
    1991A      1.893819  1992A      1.896326  1993A      1.897239  
    1994A      1.897416  1995A      1.898793  1996A      1.899835  
    1997A      1.900120  1998A      1.900562  1999A      1.903220  
    2000A      1.903690  2001A      1.904589  2002A      1.906305  
    2003A      1.907407  2004A      1.908263  2005A      1.909197  
    2006A      1.910470  2007A      1.912721  2008A      1.914482  
    2009A      1.915387  2010A      1.916929  2011A      1.917453  
    2012A      1.918929  2013A      1.919205  2014A      1.920626  
    2015A      1.921020  2016A      1.923722  2017A      1.923860  
    2018A      1.924870  2019A      1.926527  2020A      1.928190  
    2021A      1.929157  2022A      1.929692  2023A      1.930152  
    2024A      1.932485  2025A      1.933649  2026A      1.935738  
    2027A      1.936059  2028A      1.936256  2029A      1.937366  
    2030A      1.939421  2031A      1.940393  2032A      1.943078  
    2033A      1.943498  2034A      1.944282  2035A      1.946645  
    2036A      1.947727  2037A      1.948263  2038A      1.949938  
    2039A      1.952351  2040A      1.952749  2041A      1.954032  
    2042A      1.954320  2043A      1.955926  2044A      1.956103  
    2045A      1.957740  2046A      1.958661  2047A      1.959393  
    2048A      1.960260  2049A      1.961461  2050A      1.962257  
    2051A      1.963142  2052A      1.965094  2053A      1.965260  
    2054A      1.967505  2055A      1.968413  2056A      1.969314  
    2057A      1.971211  2058A      1.972704  2059A      1.974562  
    2060A      1.974797  2061A      1.976663  2062A      1.977328  
    2063A      1.977997  2064A      1.978872  2065A      1.980625  
    2066A      1.982303  2067A      1.982786  2068A      1.984631  
    2069A      1.985744  2070A      1.986735  2071A      1.986971  
    2072A      1.988721  2073A      1.989761  2074A      1.991401  
    2075A      1.992463  2076A      1.993591  2077A      1.994256  
    2078A      1.994786  2079A      1.994971  2080A      1.996902  
    2081A      1.997874  2082A      2.000352  2083A      2.001413  
    2084A      2.001997  2085A      2.003603  2086A      2.004324  
    2087A      2.006275  2088A      2.006998  2089A      2.008265  
    2090A      2.009309  2091A      2.009370  2092A      2.010530  
    2093A      2.011643  2094A      2.012811  2095A      2.015457  
    2096A      2.016759  2097A      2.017139  2098A      2.019172  
    2099A      2.020182  2100A      2.021666  2101A      2.022697  
    2102A      2.023008  2103A      2.024583  2104A      2.026223  
    2105A      2.026411  2106A      2.026707  2107A      2.027546  
    2108A      2.028506  2109A      2.029503  2110A      2.030748  
    2111A      2.032739  2112A      2.034325  2113A      2.035590  
    2114A      2.036291  2115A      2.038554  2116A      2.039817  
    2117A      2.040618  2118A      2.042247  2119A      2.042825  
    2120A      2.044322  2121A      2.045785  2122A      2.046536  
    2123A      2.048068  2124A      2.048464  2125A      2.048869  
    2126A      2.050114  2127A      2.050874  2128A      2.052231  
    2129A      2.052836  2130A      2.056689  2131A      2.057490  
    2132A      2.058409  2133A      2.059552  2134A      2.060157  
    2135A      2.061880  2136A      2.062676  2137A      2.063052  
    2138A      2.064709  2139A      2.066755  2140A      2.068138  
    2141A      2.068540  2142A      2.070807  2143A      2.071729  
    2144A      2.072473  2145A      2.074157  2146A      2.074314  
    2147A      2.075317  2148A      2.076929  2149A      2.078708  
    2150A      2.078935  2151A      2.079291  2152A      2.080528  
    2153A      2.081148  2154A      2.082945  2155A      2.083400  
    2156A      2.084880  2157A      2.085609  2158A      2.088228  
    2159A      2.089502  2160A      2.090771  2161A      2.091264  
    2162A      2.091866  2163A      2.093574  2164A      2.094791  
    2165A      2.095125  2166A      2.096494  2167A      2.098416  
    2168A      2.099649  2169A      2.100060  2170A      2.100860  
    2171A      2.101733  2172A      2.103058  2173A      2.104575  
    2174A      2.104757  2175A      2.106265  2176A      2.106600  
    2177A      2.107304  2178A      2.110470  2179A      2.111192  
    2180A      2.112473  2181A      2.112678  2182A      2.113254  
    2183A      2.115653  2184A      2.116324  2185A      2.116502  
    2186A      2.119172  2187A      2.119356  2188A      2.120121  
    2189A      2.121637  2190A      2.124330  2191A      2.124516  
    2192A      2.125285  2193A      2.126600  2194A      2.128162  
    2195A      2.128433  2196A      2.129992  2197A      2.131627  
    2198A      2.132084  2199A      2.132549  2200A      2.134271  
    2201A      2.136273  2202A      2.137687  2203A      2.137857  
    2204A      2.139485  2205A      2.140337  2206A      2.141479  
    2207A      2.142451  2208A      2.143463  2209A      2.144083  
    2210A      2.146161  2211A      2.147040  2212A      2.148508  
    2213A      2.148889  2214A      2.149601  2215A      2.150840  
    2216A      2.152151  2217A      2.152641  2218A      2.153987  
    2219A      2.155020  2220A      2.155205  2221A      2.156450  
    2222A      2.157472  2223A      2.159353  2224A      2.160447  
    2225A      2.161252  2226A      2.163628  2227A      2.164569  
    2228A      2.165034  2229A      2.167525  2230A      2.168619  
    2231A      2.169629  2232A      2.170342  2233A      2.170369  
    2234A      2.171570  2235A      2.174645  2236A      2.175469  
    2237A      2.176138  2238A      2.177666  2239A      2.178635  
    2240A      2.179213  2241A      2.180776  2242A      2.182640  
    2243A      2.183265  2244A      2.183320  2245A      2.185192  
    2246A      2.186621  2247A      2.187313  2248A      2.188808  
    2249A      2.190699  2250A      2.191768  2251A      2.192108  
    2252A      2.193629  2253A      2.195153  2254A      2.196150  
    2255A      2.196924  2256A      2.197996  2257A      2.198610  
    2258A      2.199526  2259A      2.200653  2260A      2.202213  
    2261A      2.203021  2262A      2.203252  2263A      2.204143  
    2264A      2.206157  2265A      2.206873  2266A      2.207711  
    2267A      2.207771  2268A      2.210042  2269A      2.210875  
    2270A      2.213656  2271A      2.214386  2272A      2.215656  
    2273A      2.217182  2274A      2.217566  2275A      2.219646  
    2276A      2.220358  2277A      2.221103  2278A      2.221330  
    2279A      2.222682  2280A      2.223825  2281A      2.224592  
    2282A      2.224828  2283A      2.225210  2284A      2.226868  
    2285A      2.228465  2286A      2.229309  2287A      2.230099  
    2288A      2.230787  2289A      2.231700  2290A      2.233837  
    2291A      2.235358  2292A      2.237389  2293A      2.237691  
    2294A      2.238901  2295A      2.239230  2296A      2.240945  
    2297A      2.242051  2298A      2.242934  2299A      2.243085  
    2300A      2.245032  2301A      2.246014  2302A      2.246962  
    2303A      2.247927  2304A      2.249225  2305A      2.251050  
    2306A      2.251777  2307A      2.253707  2308A      2.254822  
    2309A      2.255561  2310A      2.255915  2311A      2.256495  
    2312A      2.258034  2313A      2.258237  2314A      2.260276  
    2315A      2.262098  2316A      2.263361  2317A      2.263747  
    2318A      2.264371  2319A      2.265688  2320A      2.266189  
    2321A      2.266260  2322A      2.269481  2323A      2.269659  
    2324A      2.270689  2325A      2.271293  2326A      2.273445  
    2327A      2.273622  2328A      2.275380  2329A      2.276057  
    2330A      2.276749  2331A      2.278106  2332A      2.278600  
    2333A      2.280091  2334A      2.280527  2335A      2.282267  
    2336A      2.282946  2337A      2.284144  2338A      2.285630  
    2339A      2.287306  2340A      2.287735  2341A      2.290025  
    2342A      2.290985  2343A      2.293207  2344A      2.295078  
    2345A      2.295681  2346A      2.298450  2347A      2.300127  
    2348A      2.300876  2349A      2.303132  2350A      2.303318  
    2351A      2.303932  2352A      2.304379  2353A      2.304920  
    2354A      2.306908  2355A      2.307716  2356A      2.308481  
    2357A      2.309059  2358A      2.310997  2359A      2.312389  
    2360A      2.312827  2361A      2.313408  2362A      2.314743  
    2363A      2.315045  2364A      2.317457  2365A      2.318092  
    2366A      2.319126  2367A      2.319823  2368A      2.321555  
    2369A      2.323603  2370A      2.324743  2371A      2.324897  
    2372A      2.326589  2373A      2.328495  2374A      2.329661  
    2375A      2.330560  2376A      2.331565  2377A      2.332772  
    2378A      2.334397  2379A      2.335914  2380A      2.336704  
    2381A      2.337341  2382A      2.338644  2383A      2.340270  
    2384A      2.341376  2385A      2.342557  2386A      2.344331  
    2387A      2.345690  2388A      2.347146  2389A      2.348472  
    2390A      2.349391  2391A      2.350614  2392A      2.351078  
    2393A      2.353304  2394A      2.354556  2395A      2.355520  
    2396A      2.357098  2397A      2.357500  2398A      2.358641  
    2399A      2.359453  2400A      2.359594  2401A      2.360274  
    2402A      2.361263  2403A      2.361743  2404A      2.364492  
    2405A      2.365912  2406A      2.366646  2407A      2.367434  
    2408A      2.368572  2409A      2.368870  2410A      2.370248  
    2411A      2.371531  2412A      2.373546  2413A      2.374773  
    2414A      2.375223  2415A      2.376014  2416A      2.378469  
    2417A      2.378583  2418A      2.379665  2419A      2.381323  
    2420A      2.382655  2421A      2.382864  2422A      2.385844  
    2423A      2.386946  2424A      2.387932  2425A      2.388526  
    2426A      2.389809  2427A      2.390157  2428A      2.390744  
    2429A      2.392929  2430A      2.394447  2431A      2.395269  
    2432A      2.396048  2433A      2.396359  2434A      2.397666  
    2435A      2.398809  2436A      2.399969  2437A      2.404258  
    2438A      2.405094  2439A      2.406287  2440A      2.407012  
    2441A      2.409609  2442A      2.411001  2443A      2.412624  
    2444A      2.413991  2445A      2.415174  2446A      2.416407  
    2447A      2.418124  2448A      2.419142  2449A      2.420401  
    2450A      2.422872  2451A      2.423296  2452A      2.424075  
    2453A      2.424414  2454A      2.425313  2455A      2.426010  
    2456A      2.427984  2457A      2.429788  2458A      2.430587  
    2459A      2.431001  2460A      2.432446  2461A      2.433382  
    2462A      2.434005  2463A      2.434220  2464A      2.436062  
    2465A      2.437081  2466A      2.438211  2467A      2.439607  
    2468A      2.441411  2469A      2.442507  2470A      2.443376  
    2471A      2.444225  2472A      2.446727  2473A      2.448832  
    2474A      2.449337  2475A      2.451956  2476A      2.454013  
    2477A      2.455215  2478A      2.456437  2479A      2.456674  
    2480A      2.459864  2481A      2.460762  2482A      2.461422  
    2483A      2.462071  2484A      2.462431  2485A      2.463490  
    2486A      2.465553  2487A      2.467530  2488A      2.468970  
    2489A      2.469183  2490A      2.471643  2491A      2.472909  
    2492A      2.474964  2493A      2.477566  2494A      2.477833  
    2495A      2.478327  2496A      2.479477  2497A      2.480043  
    2498A      2.481017  2499A      2.481161  2500A      2.482995  
    2501A      2.483960  2502A      2.485567  2503A      2.486401  
    2504A      2.487391  2505A      2.489542  2506A      2.491474  
    2507A      2.493870  2508A      2.494671  2509A      2.496144  
    2510A      2.496417  2511A      2.497037  2512A      2.497894  
    2513A      2.500777  2514A      2.501927  2515A      2.502360  
    2516A      2.504934  2517A      2.505353  2518A      2.507523  
    2519A      2.508731  2520A      2.510273  2521A      2.512767  
    2522A      2.513655  2523A      2.514886  2524A      2.517945  
    2525A      2.518990  2526A      2.520083  2527A      2.521425  
    2528A      2.522932  2529A      2.523634  2530A      2.525899  
    2531A      2.526245  2532A      2.527493  2533A      2.529212  
    2534A      2.529521  2535A      2.530204  2536A      2.531073  
    2537A      2.533241  2538A      2.536654  2539A      2.537950  
    2540A      2.538257  2541A      2.539237  2542A      2.540682  
    2543A      2.541137  2544A      2.542739  2545A      2.543915  
    2546A      2.546151  2547A      2.546491  2548A      2.549034  
    2549A      2.550217  2550A      2.551424  2551A      2.551671  
    2552A      2.553247  2553A      2.555436  2554A      2.557612  
    2555A      2.559026  2556A      2.559622  2557A      2.562372  
    2558A      2.563042  2559A      2.563544  2560A      2.565854  
    2561A      2.566174  2562A      2.566971  2563A      2.567846  
    2564A      2.569454  2565A      2.570535  2566A      2.571166  
    2567A      2.573907  2568A      2.576585  2569A      2.577041  
    2570A      2.577509  2571A      2.580643  2572A      2.580894  
    2573A      2.583231  2574A      2.583680  2575A      2.584856  
    2576A      2.587101  2577A      2.588691  2578A      2.589695  
    2579A      2.590627  2580A      2.591111  2581A      2.591571  
    2582A      2.594159  2583A      2.594674  2584A      2.596324  
    2585A      2.599344  2586A      2.600499  2587A      2.601533  
    2588A      2.602008  2589A      2.602189  2590A      2.605949  
    2591A      2.606182  2592A      2.609856  2593A      2.610672  
    2594A      2.611020  2595A      2.614416  2596A      2.615216  
    2597A      2.616487  2598A      2.616863  2599A      2.618058  
    2600A      2.619770  2601A      2.621784  2602A      2.622641  
    2603A      2.625854  2604A      2.626451  2605A      2.628040  
    2606A      2.630463  2607A      2.631825  2608A      2.633505  
    2609A      2.635092  2610A      2.637471  2611A      2.639857  
    2612A      2.640613  2613A      2.642222  2614A      2.643181  
    2615A      2.643454  2616A      2.644842  2617A      2.646441  
    2618A      2.648701  2619A      2.649539  2620A      2.650016  
    2621A      2.651278  2622A      2.653123  2623A      2.655607  
    2624A      2.656547  2625A      2.659293  2626A      2.659978  
    2627A      2.660938  2628A      2.661818  2629A      2.662998  
    2630A      2.663968  2631A      2.667134  2632A      2.668657  
    2633A      2.670514  2634A      2.671311  2635A      2.673621  
[...]
    5654A     10.170035  5655A     10.171170  5656A     10.174128  
    5657A     10.175885  5658A     10.176133  5659A     10.180139  
    5660A     10.182440  5661A     10.185482  5662A     10.188191  
    5663A     10.189032  5664A     10.192559  5665A     10.193496  
    5666A     10.195648  5667A     10.198410  5668A     10.206181  
    5669A     10.206456  5670A     10.207604  5671A     10.215843  
    5672A     10.218007  5673A     10.219668  5674A     10.220069  
    5675A     10.222639  5676A     10.224139  5677A     10.227650  
    5678A     10.231415  5679A     10.234968  5680A     10.237283  
    5681A     10.243210  5682A     10.244424  5683A     10.251432  
    5684A     10.256693  5685A     10.258670  5686A     10.260599  
    5687A     10.268910  5688A     10.271300  5689A     10.272760  
    5690A     10.273069  5691A     10.274692  5692A     10.277405  
    5693A     10.278448  5694A     10.282593  5695A     10.285787  
    5696A     10.291601  5697A     10.293536  5698A     10.297362  
    5699A     10.298303  5700A     10.301682  5701A     10.302322  
    5702A     10.304911  5703A     10.308017  5704A     10.312477  
    5705A     10.313149  5706A     10.316112  5707A     10.320796  
    5708A     10.321400  5709A     10.325503  5710A     10.327547  
    5711A     10.333231  5712A     10.334985  5713A     10.338469  
    5714A     10.342511  5715A     10.346463  5716A     10.348833  
    5717A     10.351255  5718A     10.353258  5719A     10.355827  
    5720A     10.362213  5721A     10.365172  5722A     10.367159  
    5723A     10.368861  5724A     10.369143  5725A     10.372233  
    5726A     10.376250  5727A     10.377821  5728A     10.383891  
    5729A     10.385252  5730A     10.386355  5731A     10.391965  
    5732A     10.396946  5733A     10.405326  5734A     10.408069  
    5735A     10.409608  5736A     10.417176  5737A     10.421311  
    5738A     10.423743  5739A     10.424884  5740A     10.429136  
    5741A     10.431905  5742A     10.433880  5743A     10.439375  
    5744A     10.445055  5745A     10.448028  5746A     10.450780  
    5747A     10.453823  5748A     10.455628  5749A     10.459036  
    5750A     10.460290  5751A     10.461947  5752A     10.465366  
    5753A     10.468798  5754A     10.476076  5755A     10.481580  
    5756A     10.482045  5757A     10.484566  5758A     10.487684  
    5759A     10.489535  5760A     10.497830  5761A     10.499835  
    5762A     10.501731  5763A     10.502257  5764A     10.506752  
    5765A     10.512589  5766A     10.517701  5767A     10.520198  
    5768A     10.526880  5769A     10.537430  5770A     10.543370  
    5771A     10.547990  5772A     10.549617  5773A     10.558975  
    5774A     10.565008  5775A     10.573061  5776A     10.578370  
    5777A     10.579184  5778A     10.586631  5779A     10.590900  
    5780A     10.593473  5781A     10.595536  5782A     10.605130  
    5783A     10.606815  5784A     10.616783  5785A     10.626225  
    5786A     10.629953  5787A     10.632375  5788A     10.633756  
    5789A     10.644782  5790A     10.649276  5791A     10.651488  
    5792A     10.652561  5793A     10.657560  5794A     10.664712  
    5795A     10.674627  5796A     10.675426  5797A     10.678527  
    5798A     10.697349  5799A     10.697759  5800A     10.701211  
    5801A     10.703569  5802A     10.710589  5803A     10.715031  
    5804A     10.727126  5805A     10.736334  5806A     10.740514  
    5807A     10.761883  5808A     10.763560  5809A     10.769499  
    5810A     10.770485  5811A     10.777009  5812A     10.781741  
    5813A     10.785343  5814A     10.789091  5815A     10.797015  
    5816A     10.813195  5817A     10.817865  5818A     10.818541  
    5819A     10.823588  5820A     10.824322  5821A     10.826747  
    5822A     10.830799  5823A     10.834639  5824A     10.835384  
    5825A     10.840791  5826A     10.842388  5827A     10.851455  
    5828A     10.854503  5829A     10.857119  5830A     10.869151  
    5831A     10.870628  5832A     10.879218  5833A     10.881293  
    5834A     10.885320  5835A     10.886059  5836A     10.888608  
    5837A     10.892290  5838A     10.898652  5839A     10.899417  
    5840A     10.899525  5841A     10.904910  5842A     10.906335  
    5843A     10.912033  5844A     10.914494  5845A     10.923037  
    5846A     10.923700  5847A     10.929838  5848A     10.931817  
    5849A     10.943971  5850A     10.950154  5851A     10.952684  
    5852A     10.953351  5853A     10.956512  5854A     10.956875  
    5855A     10.960312  5856A     10.967146  5857A     10.975132  
    5858A     10.978009  5859A     10.986863  5860A     10.991572  
    5861A     10.994561  5862A     11.000194  5863A     11.001094  
    5864A     11.008924  5865A     11.010954  5866A     11.016881  
    5867A     11.017655  5868A     11.023354  5869A     11.028399  
    5870A     11.032119  5871A     11.034655  5872A     11.040812  
    5873A     11.043759  5874A     11.048738  5875A     11.049709  
    5876A     11.052775  5877A     11.058992  5878A     11.069735  
    5879A     11.073628  5880A     11.075616  5881A     11.079444  
    5882A     11.082530  5883A     11.087771  5884A     11.089896  
    5885A     11.093244  5886A     11.095661  5887A     11.099042  
    5888A     11.099239  5889A     11.106724  5890A     11.109850  
    5891A     11.112353  5892A     11.115153  5893A     11.119703  
    5894A     11.121215  5895A     11.125361  5896A     11.134569  
    5897A     11.135434  5898A     11.140759  5899A     11.143189  
    5900A     11.145336  5901A     11.156709  5902A     11.157693  
    5903A     11.158690  5904A     11.162553  5905A     11.164697  
    5906A     11.165689  5907A     11.167240  5908A     11.174024  
    5909A     11.175406  5910A     11.182080  5911A     11.183339  
    5912A     11.190331  5913A     11.199099  5914A     11.200011  
    5915A     11.200439  5916A     11.202134  5917A     11.204494  
    5918A     11.206125  5919A     11.217776  5920A     11.218227  
    5921A     11.222196  5922A     11.224692  5923A     11.225079  
    5924A     11.231984  5925A     11.237301  5926A     11.237706  
    5927A     11.243472  5928A     11.252347  5929A     11.253994  
    5930A     11.255702  5931A     11.257452  5932A     11.261391  
    5933A     11.270329  5934A     11.273808  5935A     11.275370  
    5936A     11.283966  5937A     11.287679  5938A     11.291009  
    5939A     11.296281  5940A     11.297656  5941A     11.301115  
    5942A     11.317550  5943A     11.321265  5944A     11.322651  
    5945A     11.324297  5946A     11.326722  5947A     11.331373  
    5948A     11.333293  5949A     11.342786  5950A     11.345191  
    5951A     11.348721  5952A     11.355928  5953A     11.356876  
    5954A     11.364243  5955A     11.388879  5956A     11.390161  
    5957A     11.391139  5958A     11.393619  5959A     11.393939  
    5960A     11.394995  5961A     11.399204  5962A     11.403756  
    5963A     11.414877  5964A     11.415445  5965A     11.424709  
    5966A     11.428951  5967A     11.432384  5968A     11.435895  
    5969A     11.437941  5970A     11.442676  5971A     11.448234  
    5972A     11.448446  5973A     11.449112  5974A     11.454024  
    5975A     11.457195  5976A     11.463391  5977A     11.466057  
    5978A     11.466869  5979A     11.468120  5980A     11.476421  
    5981A     11.477506  5982A     11.486354  5983A     11.490032  
    5984A     11.497450  5985A     11.501607  5986A     11.510179  
    5987A     11.516608  5988A     11.518910  5989A     11.521034  
    5990A     11.524198  5991A     11.526398  5992A     11.531757  
    5993A     11.539735  5994A     11.545775  5995A     11.547697  
    5996A     11.548424  5997A     11.548633  5998A     11.550722  
    5999A     11.553111  6000A     11.556219  6001A     11.565235  
    6002A     11.571522  6003A     11.585854  6004A     11.590158  
    6005A     11.597765  6006A     11.600069  6007A     11.604904  
    6008A     11.606953  6009A     11.612675  6010A     11.618255  
    6011A     11.626080  6012A     11.629016  6013A     11.635126  
    6014A     11.639936  6015A     11.647002  6016A     11.648370  
    6017A     11.656452  6018A     11.658619  6019A     11.667973  
    6020A     11.669657  6021A     11.671022  6022A     11.676304  
    6023A     11.682092  6024A     11.685071  6025A     11.689428  
    6026A     11.693104  6027A     11.698875  6028A     11.700698  
    6029A     11.701901  6030A     11.709395  6031A     11.714677  
    6032A     11.715603  6033A     11.718685  6034A     11.721388  
    6035A     11.725171  6036A     11.729849  6037A     11.734520  
    6038A     11.750025  6039A     11.752139  6040A     11.759775  
    6041A     11.762039  6042A     11.775052  6043A     11.780075  
    6044A     11.784846  6045A     11.786124  6046A     11.795158  
    6047A     11.797596  6048A     11.804068  6049A     11.809066  
    6050A     11.813618  6051A     11.818333  6052A     11.819895  
    6053A     11.827991  6054A     11.831752  6055A     11.834921  
    6056A     11.842736  6057A     11.845156  6058A     11.847655  
    6059A     11.861534  6060A     11.872070  6061A     11.877301  
    6062A     11.899309  6063A     11.901943  6064A     11.907003  
    6065A     11.910855  6066A     11.933524  6067A     11.936396  
    6068A     11.937019  6069A     11.944039  6070A     11.953176  
    6071A     11.957146  6072A     11.961045  6073A     11.963611  
    6074A     11.972619  6075A     11.980055  6076A     11.984895  
    6077A     11.985980  6078A     11.994802  6079A     12.002712  
    6080A     12.008846  6081A     12.013130  6082A     12.020035  
    6083A     12.027700  6084A     12.030760  6085A     12.036739  
    6086A     12.039469  6087A     12.043154  6088A     12.045919  
    6089A     12.048590  6090A     12.077134  6091A     12.084205  
    6092A     12.088946  6093A     12.090467  6094A     12.099093  
    6095A     12.119386  6096A     12.124292  6097A     12.132375  
    6098A     12.136076  6099A     12.142365  6100A     12.149846  
    6101A     12.162479  6102A     12.168740  6103A     12.171253  
    6104A     12.181059  6105A     12.184441  6106A     12.187849  
    6107A     12.194723  6108A     12.199447  6109A     12.201384  
    6110A     12.210073  6111A     12.228766  6112A     12.229561  
    6113A     12.237610  6114A     12.238944  6115A     12.240944  
    6116A     12.242515  6117A     12.245321  6118A     12.249024  
    6119A     12.255769  6120A     12.256673  6121A     12.261061  
    6122A     12.271620  6123A     12.273370  6124A     12.282038  
    6125A     12.284953  6126A     12.288161  6127A     12.296323  
    6128A     12.297117  6129A     12.300017  6130A     12.300514  
    6131A     12.301007  6132A     12.316580  6133A     12.317352  
    6134A     12.319272  6135A     12.324801  6136A     12.336523  
    6137A     12.343703  6138A     12.343930  6139A     12.350888  
    6140A     12.352043  6141A     12.355776  6142A     12.356759  
    6143A     12.358472  6144A     12.369805  6145A     12.376790  
    6146A     12.382750  6147A     12.387065  6148A     12.394869  
    6149A     12.409127  6150A     12.411397  6151A     12.412104  
    6152A     12.414167  6153A     12.415213  6154A     12.422246  
    6155A     12.423965  6156A     12.437733  6157A     12.438885  
    6158A     12.440169  6159A     12.447532  6160A     12.455330  
    6161A     12.475947  6162A     12.477028  6163A     12.501282  
    6164A     12.505667  6165A     12.519584  6166A     12.527430  
    6167A     12.533475  6168A     12.555196  6169A     12.559409  
    6170A     12.566068  6171A     12.594689  6172A     12.607204  
    6173A     12.608934  6174A     12.618207  6175A     12.627134  
    6176A     12.631900  6177A     12.679955  6178A     12.680862  
    6179A     12.688046  6180A     12.706412  6181A     12.719162  
    6182A     12.722206  6183A     12.738100  6184A     12.740878  
    6185A     12.749997  6186A     12.750422  6187A     12.765877  
    6188A     12.781604  6189A     12.802773  6190A     12.806439  
    6191A     12.808778  6192A     12.817584  6193A     12.825321  
    6194A     12.827118  6195A     12.827603  6196A     12.837571  
    6197A     12.848420  6198A     12.854115  6199A     12.856746  
    6200A     12.867867  6201A     12.868923  6202A     12.869169  
    6203A     12.887252  6204A     12.889980  6205A     12.893270  
    6206A     12.896899  6207A     12.903266  6208A     12.917817  
    6209A     12.920689  6210A     12.939548  6211A     12.963000  
    6212A     12.963363  6213A     12.974399  6214A     12.975385  
    6215A     12.982018  6216A     12.984728  6217A     12.997648  
    6218A     12.998053  6219A     12.999904  6220A     13.001664  
    6221A     13.002920  6222A     13.011042  6223A     13.018459  
    6224A     13.021623  6225A     13.029780  6226A     13.042663  
    6227A     13.046024  6228A     13.051785  6229A     13.054595  
    6230A     13.058926  6231A     13.077653  6232A     13.080286  
    6233A     13.082740  6234A     13.096619  6235A     13.108041  
    6236A     13.111601  6237A     13.118968  6238A     13.133346  
    6239A     13.137110  6240A     13.141090  6241A     13.151422  
    6242A     13.154496  6243A     13.165838  6244A     13.177374  
    6245A     13.181349  6246A     13.188943  6247A     13.203355  
    6248A     13.207616  6249A     13.208073  6250A     13.208946  
    6251A     13.212507  6252A     13.242133  6253A     13.248571  
    6254A     13.262399  6255A     13.262609  6256A     13.283802  
    6257A     13.285825  6258A     13.287256  6259A     13.304206  
    6260A     13.324540  6261A     13.347365  6262A     13.352529  
    6263A     13.354769  6264A     13.362041  6265A     13.373916  
    6266A     13.375929  6267A     13.381341  6268A     13.385130  
    6269A     13.390366  6270A     13.392820  6271A     13.400897  
    6272A     13.403121  6273A     13.404523  6274A     13.421096  
    6275A     13.425322  6276A     13.428695  6277A     13.437813  
    6278A     13.445163  6279A     13.448188  6280A     13.451237  
    6281A     13.454765  6282A     13.458973  6283A     13.461635  
    6284A     13.464767  6285A     13.467784  6286A     13.472205  
    6287A     13.476383  6288A     13.481236  6289A     13.492806  
    6290A     13.494171  6291A     13.501123  6292A     13.517067  
    6293A     13.521460  6294A     13.524169  6295A     13.526038  
    6296A     13.530767  6297A     13.536202  6298A     13.544483  
    6299A     13.551088  6300A     13.559189  6301A     13.560914  
    6302A     13.566584  6303A     13.567462  6304A     13.576155  
    6305A     13.592091  6306A     13.603755  6307A     13.609160  
    6308A     13.611830  6309A     13.612359  6310A     13.625445  
    6311A     13.629094  6312A     13.635988  6313A     13.661076  
    6314A     13.661952  6315A     13.666562  6316A     13.675166  
    6317A     13.692733  6318A     13.699552  6319A     13.707518  
    6320A     13.725171  6321A     13.766943  6322A     13.770291  
    6323A     13.774948  6324A     13.787348  6325A     13.791471  
    6326A     13.793519  6327A     13.808648  6328A     13.815863  
    6329A     13.855259  6330A     13.875760  6331A     13.894537  
    6332A     13.911997  6333A     13.919090  6334A     13.921044  
    6335A     13.929756  6336A     13.936787  6337A     13.950416  
    6338A     13.967955  6339A     13.988634  6340A     13.991232  
    6341A     14.032877  6342A     14.055573  6343A     14.057054  
    6344A     14.058068  6345A     14.070770  6346A     14.073364  
    6347A     14.075416  6348A     14.085074  6349A     14.119092  
    6350A     14.153712  6351A     14.158991  6352A     14.159274  
    6353A     14.205393  6354A     14.241855  6355A     14.274834  
    6356A     14.289156  6357A     14.303394  6358A     14.375526  
    6359A     14.391319  6360A     14.405401  6361A     14.461362  
    6362A     14.484683  6363A     14.528323  6364A     14.539368  
    6365A     14.571617  6366A     14.596297  6367A     14.628993  
    6368A     14.630696  6369A     14.635333  6370A     14.641382  
    6371A     14.652274  6372A     14.665814  6373A     14.672753  
    6374A     14.674362  6375A     14.697516  6376A     14.702083  
    6377A     14.718883  6378A     14.736954  6379A     14.804001  
    6380A     14.878271  6381A     14.902693  6382A     14.922281  
    6383A     14.958754  6384A     14.959497  6385A     15.001341  
    6386A     15.031413  6387A     15.061942  6388A     15.065128  
    6389A     15.073880  6390A     15.124818  6391A     15.127272  
    6392A     15.139518  6393A     15.152168  6394A     15.180521  
    6395A     15.184413  6396A     15.220774  6397A     15.226030  
    6398A     15.234181  6399A     15.254457  6400A     15.304586  
    6401A     15.315693  6402A     15.338047  6403A     15.372437  
    6404A     15.404747  6405A     15.410989  6406A     15.421961  
    6407A     15.434437  6408A     15.448793  6409A     15.454027  
    6410A     15.490435  6411A     15.539320  6412A     15.564428  
    6413A     15.569922  6414A     15.598823  6415A     15.604411  
    6416A     15.638379  6417A     17.434537  6418A     17.521490  
    6419A     17.544341  6420A     17.694494  6421A     26.594398  
    6422A     26.721212  6423A     26.808159  6424A     26.990191  
    6425A     27.001159  6426A     27.008694  6427A     27.090344  
    6428A     27.146422  6429A     27.186704  6430A     27.277593  
    6431A     27.421604  6432A     27.471643  6433A     27.751335  
    6434A     28.107674  6435A     28.158321  6436A     28.245818  
    6437A     28.345286  6438A     28.408509  6439A     28.442845  
    6440A     28.473483  6441A     28.479192  6442A     28.485683  
    6443A     28.546604  6444A     28.676642  6445A     28.718808  
    6446A     28.984865  6447A     29.044771  6448A     35.501967  
    6449A     35.810903  6450A     35.984276  6451A     36.184456  
    6452A     36.186820  6453A     36.375688  6454A     36.417015  
    6455A     36.466170  6456A     43.967539  6457A     44.086042  
    6458A     44.465340  6459A     44.600736  6460A     44.665970  
    6461A     44.719435  6462A     44.729505  6463A     44.808426  
    6464A     44.864643  6465A     45.059157  6466A     45.123606  
    6467A     45.248438  6468A     46.046644  6469A     46.113634  
    6470A     46.328828  6471A     46.629406  

    Final Occupation by Irrep:
              A 
    DOCC [   199 ]

  Energy converged.

  @DF-RHF Final Energy: -2687.03262151552963

   => Energetics <=

    Nuclear Repulsion Energy =           6201.5436595934152137
    One-Electron Energy =              -16035.8168249805348751
    Two-Electron Energy =                7147.2405438715895798
    Total Energy =                      -2687.0326215155300815



Properties will be evaluated at   0.000000,   0.000000,   0.000000 Bohr

Properties computed using the SCF density matrix

  Nuclear Dipole Moment: (a.u.)
     X:   -36.4282      Y:   -12.7853      Z:    -6.2450

  Electronic Dipole Moment: (a.u.)
     X:    35.5016      Y:    11.2990      Z:     6.6914

  Dipole Moment: (a.u.)
     X:    -0.9266      Y:    -1.4863      Z:     0.4464     Total:     1.8075

  Dipole Moment: (Debye)
     X:    -2.3552      Y:    -3.7778      Z:     1.1346     Total:     4.5941


*** tstop() called on hex15 at Sun Mar 11 01:37:19 2018
Module time:
	user time   =  138280.66 seconds =    2304.68 minutes
	system time =    6138.21 seconds =     102.30 minutes
	total time  =     115104 seconds =    1918.40 minutes
Total time:
	user time   =  138280.66 seconds =    2304.68 minutes
	system time =    6138.21 seconds =     102.30 minutes
	total time  =     115104 seconds =    1918.40 minutes

*** Psi4 exiting successfully. Buy a developer a beer!
