
    -----------------------------------------------------------------------
          Psi4: An Open-Source Ab Initio Electronic Structure Package
                               Psi4 1.2a1.dev875 

                         Git: Rev {symm_JK} 0ea9481 dirty


    R. M. Parrish, L. A. Burns, D. G. A. Smith, A. C. Simmonett,
    A. E. DePrince III, E. G. Hohenstein, U. Bozkaya, A. Yu. Sokolov,
    R. Di Remigio, R. M. Richard, J. F. Gonthier, A. M. James,
    H. R. McAlexander, A. Kumar, M. Saitow, X. Wang, B. P. Pritchard,
    P. Verma, H. F. Schaefer III, K. Patkowski, R. A. King, E. F. Valeev,
    F. A. Evangelista, J. M. Turney, T. D. Crawford, and C. D. Sherrill,
    J. Chem. Theory Comput. 13(7) pp 3185--3197 (2017).
    (doi: 10.1021/acs.jctc.7b00174)

    -----------------------------------------------------------------------


    Psi4 started on: Thursday, 08 March 2018 11:49PM

    Process ID:  30200
    PSIDATADIR: /theoryfs2/ds/schieber/Gits/mspsi4/objdir3/stage/usr/local/psi4/share/psi4
    Memory:     500.0 MiB
    Threads:    6
    
  ==> Input File <==

--------------------------------------------------------------------------
memory 60 Gb

molecule protein_81 {
0 1
 N   18.626  30.444   6.627
 C   17.853  29.516   5.837
 C   16.945  30.292   4.886
 O   15.843  30.678   5.237
 C   17.047  28.642   6.811
 C   16.316  27.513   6.146
 O   16.236  27.458   4.905
 O   15.762  26.696   6.882
 N    4.567  24.042   8.795
 C    4.886  22.777   8.145
 C    6.265  22.720   7.521
 O    6.723  23.689   6.900
 N   17.407  27.054  -1.437
 C   17.227  26.751  -0.026
 C   18.555  26.446   0.653
 O   19.003  25.309   0.692
 C   16.258  25.572   0.084
 C   15.759  25.336   1.493
 O   16.399  25.780   2.453
 O   14.731  24.675   1.645
 N   19.106  26.199   3.688
 C   18.957  25.372   4.876
 C   18.845  23.903   4.520
 O   18.660  23.054   5.417
 N   20.536  20.559   2.918
 C   21.779  19.912   2.496
 C   21.693  19.374   1.107
 O   22.642  19.502   0.361
 C   22.169  18.827   3.447
 C   22.272  19.337   4.844
 O   22.714  20.482   5.029
 O   21.836  18.647   5.778
 N   15.750  18.102  -3.440
 C   14.628  17.162  -3.514
 C   13.618  17.726  -4.436
 O   13.169  18.861  -4.263
 C   13.781  17.005  -2.245
 C   13.297  15.592  -2.184
 C   14.518  17.455  -1.007
 H   18.180  30.990   7.295
 H   18.510  28.835   5.249
 H   16.336  29.276   7.377
 H   17.778  28.186   7.516
 H   15.845  26.702   7.843
 H    4.436  24.871   8.195
 H    4.744  21.930   8.802
 H    4.143  22.632   7.335
 H   17.860  26.421  -2.023
 H   16.724  27.595   0.500
 H   16.724  24.663  -0.337
 H   15.363  25.845  -0.519
 H   16.737  25.171   3.109
 H   18.314  26.771   3.377
 H   18.015  25.631   5.391
 H   19.792  25.567   5.577
 H   19.976  20.073   3.597
 H   22.602  20.664   2.537
 H   23.175  18.459   3.144
 H   21.465  17.966   3.392
 H   21.492  17.752   5.634
 H   15.541  19.065  -3.172
 H   15.011  16.180  -3.836
 H   12.886  17.674  -2.203
 H   14.115  14.872  -2.046
 H   12.706  15.323  -3.086
 H   12.624  15.478  -1.307
 H   15.405  16.799  -0.936
 H   13.886  17.316  -0.103
 H   14.813  18.522  -1.068
 H   19.646  30.419   6.619
 H   17.295  30.415   3.850
 H    4.454  24.117   9.806
 H    6.887  21.864   7.822
 H   16.947  27.858  -1.864
 H   19.060  27.284   1.155
 H   20.034  26.347   3.290
 H   18.824  23.654   3.449
 H   20.197  21.395   2.443
 H   20.727  18.956   0.786
 H   16.715  17.829  -3.624
 H   13.269  17.060  -5.239
}

set {
basis aug-cc-pvqz
scf_type df
guess sad
DF_SCF_TYPE SYMM_JK
}

energy('HF')
--------------------------------------------------------------------------

  Memory set to  55.879 GiB by Python driver.

*** tstart() called on hex15
*** at Thu Mar  8 23:49:16 2018

   => Loading Basis Set <=

    Name: AUG-CC-PVQZ
    Role: ORBITAL
    Keyword: BASIS
    atoms 1, 9, 13, 21, 25, 33                                             entry N          line   359 file /theoryfs2/ds/schieber/Gits/mspsi4/objdir3/stage/usr/local/psi4/share/psi4/basis/aug-cc-pvqz.gbs 
    atoms 2-3, 5-6, 10-11, 14-15, 17-18, 22-23, 26-27, 29-30, 34-35, 37-39 entry C          line   299 file /theoryfs2/ds/schieber/Gits/mspsi4/objdir3/stage/usr/local/psi4/share/psi4/basis/aug-cc-pvqz.gbs 
    atoms 4, 7-8, 12, 16, 19-20, 24, 28, 31-32, 36                         entry O          line   419 file /theoryfs2/ds/schieber/Gits/mspsi4/objdir3/stage/usr/local/psi4/share/psi4/basis/aug-cc-pvqz.gbs 
    atoms 40-81                                                            entry H          line    36 file /theoryfs2/ds/schieber/Gits/mspsi4/objdir3/stage/usr/local/psi4/share/psi4/basis/aug-cc-pvqz.gbs 


         ---------------------------------------------------------
                                   SCF
            by Justin Turney, Rob Parrish, Andy Simmonett
                             and Daniel Smith
                              RHF Reference
                        6 Threads,  57220 MiB Core
         ---------------------------------------------------------

  ==> Geometry <==

    Molecular point group: c1
    Full point group: C1

    Geometry (in Angstrom), charge = 0, multiplicity = 1:

       Center              X                  Y                   Z               Mass       
    ------------   -----------------  -----------------  -----------------  -----------------
           N          2.162085654028     7.131922671342     3.830998506539    14.003074004780
           C          1.389085654028     6.203922671342     3.040998506539    12.000000000000
           C          0.481085654028     6.979922671342     2.089998506539    12.000000000000
           O         -0.620914345972     7.365922671342     2.440998506539    15.994914619560
           C          0.583085654028     5.329922671342     4.014998506539    12.000000000000
           C         -0.147914345972     4.200922671342     3.349998506539    12.000000000000
           O         -0.227914345972     4.145922671342     2.108998506539    15.994914619560
           O         -0.701914345972     3.383922671342     4.085998506539    15.994914619560
           N        -11.896914345972     0.729922671342     5.998998506539    14.003074004780
           C        -11.577914345972    -0.535077328658     5.348998506539    12.000000000000
           C        -10.198914345972    -0.592077328658     4.724998506539    12.000000000000
           O         -9.740914345972     0.376922671342     4.103998506539    15.994914619560
           N          0.943085654028     3.741922671342    -4.233001493461    14.003074004780
           C          0.763085654028     3.438922671342    -2.822001493461    12.000000000000
           C          2.091085654028     3.133922671342    -2.143001493461    12.000000000000
           O          2.539085654028     1.996922671342    -2.104001493461    15.994914619560
           C         -0.205914345972     2.259922671342    -2.712001493461    12.000000000000
           C         -0.704914345972     2.023922671342    -1.303001493461    12.000000000000
           O         -0.064914345972     2.467922671342    -0.343001493461    15.994914619560
           O         -1.732914345972     1.362922671342    -1.151001493461    15.994914619560
           N          2.642085654028     2.886922671342     0.891998506539    14.003074004780
           C          2.493085654028     2.059922671342     2.079998506539    12.000000000000
           C          2.381085654028     0.590922671342     1.723998506539    12.000000000000
           O          2.196085654028    -0.258077328658     2.620998506539    15.994914619560
           N          4.072085654028    -2.753077328658     0.121998506539    14.003074004780
           C          5.315085654028    -3.400077328658    -0.300001493461    12.000000000000
           C          5.229085654028    -3.938077328658    -1.689001493461    12.000000000000
           O          6.178085654028    -3.810077328658    -2.435001493461    15.994914619560
           C          5.705085654028    -4.485077328658     0.650998506539    12.000000000000
           C          5.808085654028    -3.975077328658     2.047998506539    12.000000000000
           O          6.250085654028    -2.830077328658     2.232998506539    15.994914619560
           O          5.372085654028    -4.665077328658     2.981998506539    15.994914619560
           N         -0.713914345972    -5.210077328658    -6.236001493461    14.003074004780
           C         -1.835914345972    -6.150077328658    -6.310001493461    12.000000000000
           C         -2.845914345972    -5.586077328658    -7.232001493461    12.000000000000
           O         -3.294914345972    -4.451077328658    -7.059001493461    15.994914619560
           C         -2.682914345972    -6.307077328658    -5.041001493461    12.000000000000
           C         -3.166914345972    -7.720077328658    -4.980001493461    12.000000000000
           C         -1.945914345972    -5.857077328658    -3.803001493461    12.000000000000
           H          1.716085654028     7.677922671342     4.498998506539     1.007825032070
           H          2.046085654028     5.522922671342     2.452998506539     1.007825032070
           H         -0.127914345972     5.963922671342     4.580998506539     1.007825032070
           H          1.314085654028     4.873922671342     4.719998506539     1.007825032070
           H         -0.618914345972     3.389922671342     5.046998506539     1.007825032070
           H        -12.027914345972     1.558922671342     5.398998506539     1.007825032070
           H        -11.719914345972    -1.382077328658     6.005998506539     1.007825032070
           H        -12.320914345972    -0.680077328658     4.538998506539     1.007825032070
           H          1.396085654028     3.108922671342    -4.819001493461     1.007825032070
           H          0.260085654028     4.282922671342    -2.296001493461     1.007825032070
           H          0.260085654028     1.350922671342    -3.133001493461     1.007825032070
           H         -1.100914345972     2.532922671342    -3.315001493461     1.007825032070
           H          0.273085654028     1.858922671342     0.312998506539     1.007825032070
           H          1.850085654028     3.458922671342     0.580998506539     1.007825032070
           H          1.551085654028     2.318922671342     2.594998506539     1.007825032070
           H          3.328085654028     2.254922671342     2.780998506539     1.007825032070
           H          3.512085654028    -3.239077328658     0.800998506539     1.007825032070
           H          6.138085654028    -2.648077328658    -0.259001493461     1.007825032070
           H          6.711085654028    -4.853077328658     0.347998506539     1.007825032070
           H          5.001085654028    -5.346077328658     0.595998506539     1.007825032070
           H          5.028085654028    -5.560077328658     2.837998506539     1.007825032070
           H         -0.922914345972    -4.247077328658    -5.968001493461     1.007825032070
           H         -1.452914345972    -7.132077328658    -6.632001493461     1.007825032070
           H         -3.577914345972    -5.638077328658    -4.999001493461     1.007825032070
           H         -2.348914345972    -8.440077328658    -4.842001493461     1.007825032070
           H         -3.757914345972    -7.989077328658    -5.882001493461     1.007825032070
           H         -3.839914345972    -7.834077328658    -4.103001493461     1.007825032070
           H         -1.058914345972    -6.513077328658    -3.732001493461     1.007825032070
           H         -2.577914345972    -5.996077328658    -2.899001493461     1.007825032070
           H         -1.650914345972    -4.790077328658    -3.864001493461     1.007825032070
           H          3.182085654028     7.106922671342     3.822998506539     1.007825032070
           H          0.831085654028     7.102922671342     1.053998506539     1.007825032070
           H        -12.009914345972     0.804922671342     7.009998506539     1.007825032070
           H         -9.576914345972    -1.448077328658     5.025998506539     1.007825032070
           H          0.483085654028     4.545922671342    -4.660001493461     1.007825032070
           H          2.596085654028     3.971922671342    -1.641001493461     1.007825032070
           H          3.570085654028     3.034922671342     0.493998506539     1.007825032070
           H          2.360085654028     0.341922671342     0.652998506539     1.007825032070
           H          3.733085654028    -1.917077328658    -0.353001493461     1.007825032070
           H          4.263085654028    -4.356077328658    -2.010001493461     1.007825032070
           H          0.251085654028    -5.483077328658    -6.420001493461     1.007825032070
           H         -3.194914345972    -6.252077328658    -8.035001493461     1.007825032070

  Running in c1 symmetry.

  Rotational constants: A =      0.00108  B =      0.00092  C =      0.00065 [cm^-1]
  Rotational constants: A =     32.29472  B =     27.57633  C =     19.58821 [MHz]
  Nuclear repulsion = 3942.786577156039129

  Charge       = 0
  Multiplicity = 1
  Electrons    = 306
  Nalpha       = 153
  Nbeta        = 153

  ==> Algorithm <==

  SCF Algorithm Type is DF.
  DIIS enabled.
  MOM disabled.
  Fractional occupation disabled.
  Guess Type is SAD.
  Energy threshold   = 1.00e-06
  Density threshold  = 1.00e-06
  Integral threshold = 0.00e+00

  ==> Primary Basis <==

  Basis Set: AUG-CC-PVQZ
    Blend: AUG-CC-PVQZ
    Number of shells: 1368
    Number of basis function: 5052
    Number of Cartesian functions: 6405
    Spherical Harmonics?: true
    Max angular momentum: 4

   => Loading Basis Set <=

    Name: (AUG-CC-PVQZ AUX)
    Role: JKFIT
    Keyword: DF_BASIS_SCF
    atoms 1, 9, 13, 21, 25, 33                                             entry N          line   248 file /theoryfs2/ds/schieber/Gits/mspsi4/objdir3/stage/usr/local/psi4/share/psi4/basis/aug-cc-pvqz-jkfit.gbs 
    atoms 2-3, 5-6, 10-11, 14-15, 17-18, 22-23, 26-27, 29-30, 34-35, 37-39 entry C          line   178 file /theoryfs2/ds/schieber/Gits/mspsi4/objdir3/stage/usr/local/psi4/share/psi4/basis/aug-cc-pvqz-jkfit.gbs 
    atoms 4, 7-8, 12, 16, 19-20, 24, 28, 31-32, 36                         entry O          line   318 file /theoryfs2/ds/schieber/Gits/mspsi4/objdir3/stage/usr/local/psi4/share/psi4/basis/aug-cc-pvqz-jkfit.gbs 
    atoms 40-81                                                            entry H          line    70 file /theoryfs2/ds/schieber/Gits/mspsi4/objdir3/stage/usr/local/psi4/share/psi4/basis/aug-cc-pvqz-jkfit.gbs 

  ==> Pre-Iterations <==

   -------------------------------------------------------
    Irrep   Nso     Nmo     Nalpha   Nbeta   Ndocc  Nsocc
   -------------------------------------------------------
     A       5052    5052       0       0       0       0
   -------------------------------------------------------
    Total    5052    5052     153     153     153       0
   -------------------------------------------------------

  ==> Integral Setup <==


    ==> DF_Helper memory announcement <==
        Turning off in-core AOs.  DF_Helper needs at least (795.024GB), but it only got (45GB)

    ==> DF_Helper <==
      nao           = 5052
      naux          = 8730
      Scwarz cutoff = 1.000000E-12
      mem (doubles) = 5625000000
      nthreads      = 6
      Algorithm     = STORE
      AO_core?      = 0
      MO_core?      = 0
      hold metric   = 0
      metric power  = -5.000000E-01
  Fitting condition = 1.000000E-12
  Mask sparsity (%) = (64.765567)


  Minimum eigenvalue in the overlap matrix is 2.6736365554E-07.
  Using Symmetric Orthogonalization.

  SCF Guess: Superposition of Atomic Densities via on-the-fly atomic UHF.

  ==> Iterations <==

                           Total Energy        Delta E     RMS |[F,P]|

   @DF-RHF iter   0: -2059.05787080449818   -2.05906e+03   5.75831e-03 
   @DF-RHF iter   1: -2043.95420206153040    1.51037e+01   7.60348e-04 
   @DF-RHF iter   2: -2044.89269950082098   -9.38497e-01   5.41741e-04 DIIS
   @DF-RHF iter   3: -2045.34930771798986   -4.56608e-01   1.15993e-04 DIIS
   @DF-RHF iter   4: -2045.39686717166728   -4.75595e-02   3.95172e-05 DIIS
   @DF-RHF iter   5: -2045.40347212177767   -6.60495e-03   1.58963e-05 DIIS
   @DF-RHF iter   6: -2045.40495512208577   -1.48300e-03   7.31506e-06 DIIS
   @DF-RHF iter   7: -2045.40532697366098   -3.71852e-04   3.25824e-06 DIIS
   @DF-RHF iter   8: -2045.40540126353358   -7.42899e-05   1.48523e-06 DIIS
   @DF-RHF iter   9: -2045.40541944419556   -1.81807e-05   6.52939e-07 DIIS
   @DF-RHF iter  10: -2045.40542413445746   -4.69026e-06   3.11493e-07 DIIS
   @DF-RHF iter  11: -2045.40542530741800   -1.17296e-06   1.34316e-07 DIIS
   @DF-RHF iter  12: -2045.40542552871193   -2.21294e-07   5.86472e-08 DIIS

  ==> Post-Iterations <==

    Orbital Energies (a.u.)
    -----------------------

    Doubly Occupied:                                                      

       1A    -20.642503     2A    -20.635906     3A    -20.600517  
       4A    -20.566421     5A    -20.558716     6A    -20.558400  
       7A    -20.556944     8A    -20.554098     9A    -20.544342  
      10A    -20.537436    11A    -20.519869    12A    -20.513282  
      13A    -15.557877    14A    -15.550993    15A    -15.547242  
      16A    -15.543585    17A    -15.543378    18A    -15.536106  
      19A    -11.395012    20A    -11.383007    21A    -11.364373  
      22A    -11.343653    23A    -11.336575    24A    -11.335324  
      25A    -11.330713    26A    -11.327423    27A    -11.324611  
      28A    -11.295449    29A    -11.289043    30A    -11.280307  
      31A    -11.276492    32A    -11.273109    33A    -11.269332  
      34A    -11.265885    35A    -11.263275    36A    -11.236802  
      37A    -11.223461    38A    -11.221691    39A    -11.210863  
      40A     -1.526719    41A     -1.513444    42A     -1.497962  
      43A     -1.396685    44A     -1.393327    45A     -1.390947  
      46A     -1.372293    47A     -1.369657    48A     -1.367331  
      49A     -1.356310    50A     -1.340611    51A     -1.331357  
      52A     -1.213746    53A     -1.201708    54A     -1.194417  
      55A     -1.184624    56A     -1.180544    57A     -1.168923  
      58A     -1.078622    59A     -1.056550    60A     -1.055055  
      61A     -1.042641    62A     -0.966923    63A     -0.964238  
      64A     -0.962993    65A     -0.949400    66A     -0.941366  
      67A     -0.936520    68A     -0.928620    69A     -0.905890  
      70A     -0.891807    71A     -0.874292    72A     -0.809773  
      73A     -0.805944    74A     -0.802408    75A     -0.800050  
      76A     -0.794992    77A     -0.794277    78A     -0.759730  
      79A     -0.747450    80A     -0.734864    81A     -0.731504  
      82A     -0.718212    83A     -0.713171    84A     -0.707546  
      85A     -0.705459    86A     -0.698981    87A     -0.694560  
      88A     -0.692750    89A     -0.687592    90A     -0.684911  
      91A     -0.680833    92A     -0.667377    93A     -0.665789  
      94A     -0.661751    95A     -0.659201    96A     -0.658598  
      97A     -0.652982    98A     -0.648892    99A     -0.648878  
     100A     -0.643250   101A     -0.635901   102A     -0.635453  
     103A     -0.630736   104A     -0.629646   105A     -0.628981  
     106A     -0.625965   107A     -0.623053   108A     -0.621968  
     109A     -0.611452   110A     -0.609187   111A     -0.600943  
     112A     -0.590026   113A     -0.577031   114A     -0.573025  
     115A     -0.568526   116A     -0.566771   117A     -0.562196  
     118A     -0.558029   119A     -0.551244   120A     -0.549021  
     121A     -0.547043   122A     -0.534720   123A     -0.531288  
     124A     -0.529747   125A     -0.525670   126A     -0.520551  
     127A     -0.519914   128A     -0.515023   129A     -0.505769  
     130A     -0.502649   131A     -0.489451   132A     -0.487949  
     133A     -0.485283   134A     -0.475347   135A     -0.473708  
     136A     -0.461816   137A     -0.460673   138A     -0.455952  
     139A     -0.447754   140A     -0.444923   141A     -0.444293  
     142A     -0.443332   143A     -0.442006   144A     -0.440124  
     145A     -0.434338   146A     -0.434192   147A     -0.428750  
     148A     -0.386132   149A     -0.381793   150A     -0.377482  
     151A     -0.376968   152A     -0.369289   153A     -0.359155  

    Virtual:                                                              

     154A      0.012619   155A      0.013307   156A      0.018597  
     157A      0.022479   158A      0.024073   159A      0.025273  
     160A      0.030496   161A      0.030946   162A      0.031604  
     163A      0.034153   164A      0.035214   165A      0.037265  
     166A      0.038289   167A      0.039817   168A      0.040658  
     169A      0.042892   170A      0.044680   171A      0.046318  
     172A      0.047677   173A      0.049635   174A      0.050937  
     175A      0.053315   176A      0.054740   177A      0.056489  
     178A      0.057981   179A      0.060128   180A      0.061408  
     181A      0.062837   182A      0.064662   183A      0.066384  
     184A      0.068097   185A      0.069866   186A      0.070739  
     187A      0.071392   188A      0.073869   189A      0.074308  
     190A      0.076394   191A      0.078226   192A      0.079870  
     193A      0.083433   194A      0.083621   195A      0.084408  
     196A      0.085999   197A      0.086873   198A      0.087705  
     199A      0.088273   200A      0.090486   201A      0.091631  
     202A      0.092706   203A      0.093990   204A      0.096445  
     205A      0.097285   206A      0.097607   207A      0.100225  
     208A      0.101208   209A      0.101896   210A      0.103198  
     211A      0.104275   212A      0.104384   213A      0.106758  
     214A      0.107789   215A      0.108425   216A      0.110111  
     217A      0.111229   218A      0.112161   219A      0.113110  
     220A      0.114059   221A      0.115103   222A      0.115677  
     223A      0.116928   224A      0.118062   225A      0.118750  
     226A      0.120288   227A      0.120577   228A      0.121745  
     229A      0.122564   230A      0.123616   231A      0.125696  
     232A      0.125774   233A      0.126843   234A      0.128423  
     235A      0.128974   236A      0.129878   237A      0.130629  
     238A      0.131480   239A      0.132386   240A      0.133325  
     241A      0.134529   242A      0.136354   243A      0.136821  
     244A      0.139241   245A      0.140406   246A      0.140499  
     247A      0.141197   248A      0.143116   249A      0.144353  
     250A      0.145374   251A      0.147096   252A      0.147822  
     253A      0.147920   254A      0.150914   255A      0.151512  
     256A      0.152289   257A      0.152901   258A      0.154658  
     259A      0.156653   260A      0.156859   261A      0.157873  
     262A      0.158803   263A      0.160362   264A      0.161935  
     265A      0.163564   266A      0.163920   267A      0.164975  
     268A      0.165415   269A      0.167153   270A      0.167720  
     271A      0.168166   272A      0.169753   273A      0.171567  
     274A      0.173246   275A      0.173747   276A      0.174544  
     277A      0.176915   278A      0.177779   279A      0.179858  
     280A      0.180106   281A      0.181696   282A      0.182803  
     283A      0.184381   284A      0.185539   285A      0.188608  
     286A      0.188825   287A      0.189243   288A      0.190241  
     289A      0.190889   290A      0.192823   291A      0.194494  
     292A      0.196300   293A      0.196664   294A      0.198564  
     295A      0.200699   296A      0.202091   297A      0.203338  
     298A      0.204507   299A      0.204735   300A      0.206512  
     301A      0.207139   302A      0.208735   303A      0.210609  
     304A      0.212331   305A      0.213430   306A      0.214795  
     307A      0.215324   308A      0.215991   309A      0.219275  
     310A      0.220275   311A      0.220971   312A      0.221769  
     313A      0.224235   314A      0.224798   315A      0.226733  
     316A      0.228198   317A      0.229534   318A      0.230658  
     319A      0.231732   320A      0.232300   321A      0.234382  
     322A      0.234889   323A      0.235880   324A      0.236999  
     325A      0.238813   326A      0.239421   327A      0.240954  
     328A      0.242099   329A      0.243372   330A      0.244505  
     331A      0.245313   332A      0.246614   333A      0.247420  
     334A      0.248414   335A      0.250077   336A      0.250361  
     337A      0.252343   338A      0.253534   339A      0.254005  
     340A      0.255634   341A      0.256742   342A      0.257020  
     343A      0.258375   344A      0.260772   345A      0.261566  
     346A      0.262201   347A      0.263418   348A      0.264010  
     349A      0.265092   350A      0.266573   351A      0.267206  
     352A      0.268558   353A      0.269362   354A      0.269639  
     355A      0.270845   356A      0.271989   357A      0.273410  
     358A      0.275672   359A      0.275927   360A      0.276724  
     361A      0.278183   362A      0.278439   363A      0.279049  
     364A      0.279982   365A      0.283411   366A      0.283766  
     367A      0.285107   368A      0.286346   369A      0.286788  
     370A      0.288310   371A      0.288939   372A      0.289791  
     373A      0.291124   374A      0.291937   375A      0.293319  
     376A      0.294171   377A      0.295160   378A      0.296165  
     379A      0.296465   380A      0.298113   381A      0.299010  
     382A      0.299173   383A      0.299307   384A      0.301211  
     385A      0.302728   386A      0.302985   387A      0.303290  
     388A      0.304301   389A      0.305441   390A      0.307449  
     391A      0.308408   392A      0.310149   393A      0.310385  
     394A      0.311171   395A      0.312132   396A      0.312867  
     397A      0.314089   398A      0.316107   399A      0.316374  
     400A      0.317110   401A      0.319279   402A      0.319786  
     403A      0.320665   404A      0.322254   405A      0.322420  
     406A      0.323645   407A      0.324813   408A      0.325806  
     409A      0.326714   410A      0.327103   411A      0.329616  
     412A      0.330054   413A      0.330172   414A      0.330552  
     415A      0.331277   416A      0.332056   417A      0.333276  
     418A      0.334984   419A      0.335863   420A      0.336190  
     421A      0.337269   422A      0.339015   423A      0.339564  
     424A      0.340231   425A      0.341863   426A      0.344401  
     427A      0.345278   428A      0.346190   429A      0.346905  
     430A      0.349111   431A      0.349619   432A      0.352707  
     433A      0.353374   434A      0.354109   435A      0.355014  
     436A      0.356467   437A      0.357180   438A      0.358567  
     439A      0.359309   440A      0.359792   441A      0.361089  
     442A      0.361702   443A      0.363808   444A      0.365184  
     445A      0.366203   446A      0.367361   447A      0.369060  
     448A      0.369973   449A      0.370151   450A      0.370790  
     451A      0.372030   452A      0.372834   453A      0.373932  
     454A      0.375585   455A      0.376864   456A      0.377528  
     457A      0.378770   458A      0.380248   459A      0.380830  
     460A      0.381604   461A      0.383533   462A      0.385286  
     463A      0.385831   464A      0.387473   465A      0.388267  
     466A      0.389466   467A      0.390368   468A      0.391341  
     469A      0.391648   470A      0.392036   471A      0.394483  
     472A      0.395100   473A      0.395439   474A      0.396693  
     475A      0.397758   476A      0.398355   477A      0.399120  
     478A      0.400587   479A      0.400862   480A      0.402577  
     481A      0.403115   482A      0.404019   483A      0.405617  
     484A      0.406241   485A      0.406878   486A      0.407243  
     487A      0.409093   488A      0.410187   489A      0.412628  
     490A      0.413373   491A      0.414567   492A      0.415292  
     493A      0.416539   494A      0.417663   495A      0.418363  
     496A      0.419702   497A      0.420740   498A      0.422279  
     499A      0.422528   500A      0.423878   501A      0.424843  
     502A      0.425230   503A      0.426533   504A      0.429248  
     505A      0.429939   506A      0.430598   507A      0.430940  
     508A      0.432984   509A      0.433556   510A      0.434281  
     511A      0.434888   512A      0.435384   513A      0.436819  
     514A      0.437531   515A      0.438337   516A      0.439570  
     517A      0.440341   518A      0.441522   519A      0.443178  
     520A      0.443374   521A      0.444227   522A      0.445118  
     523A      0.446919   524A      0.447243   525A      0.447901  
     526A      0.450060   527A      0.450996   528A      0.452966  
     529A      0.453418   530A      0.454087   531A      0.454740  
     532A      0.456395   533A      0.456933   534A      0.458566  
     535A      0.459098   536A      0.460764   537A      0.461533  
     538A      0.464296   539A      0.464938   540A      0.465411  
     541A      0.465958   542A      0.467468   543A      0.468177  
     544A      0.468870   545A      0.469453   546A      0.471568  
     547A      0.472002   548A      0.472690   549A      0.474692  
     550A      0.475238   551A      0.477057   552A      0.478394  
     553A      0.480576   554A      0.481292   555A      0.481764  
     556A      0.483059   557A      0.485016   558A      0.485612  
     559A      0.487258   560A      0.487356   561A      0.488321  
     562A      0.489610   563A      0.492187   564A      0.493193  
     565A      0.493457   566A      0.494896   567A      0.496574  
     568A      0.496597   569A      0.498113   570A      0.498403  
     571A      0.500223   572A      0.501589   573A      0.501834  
     574A      0.503791   575A      0.504796   576A      0.505821  
     577A      0.506865   578A      0.507357   579A      0.508000  
     580A      0.508094   581A      0.509405   582A      0.511384  
     583A      0.511731   584A      0.513880   585A      0.517358  
     586A      0.518135   587A      0.518675   588A      0.519933  
     589A      0.521622   590A      0.522671   591A      0.523787  
     592A      0.525086   593A      0.525913   594A      0.527202  
     595A      0.528176   596A      0.529681   597A      0.530122  
     598A      0.531814   599A      0.532136   600A      0.532341  
     601A      0.532816   602A      0.534378   603A      0.536370  
     604A      0.537482   605A      0.538148   606A      0.539818  
     607A      0.542529   608A      0.543222   609A      0.543916  
     610A      0.544790   611A      0.546285   612A      0.547547  
     613A      0.548531   614A      0.549224   615A      0.549365  
     616A      0.552086   617A      0.552822   618A      0.554209  
     619A      0.555584   620A      0.556393   621A      0.557709  
     622A      0.557931   623A      0.558886   624A      0.561068  
     625A      0.562431   626A      0.562973   627A      0.565272  
     628A      0.566325   629A      0.567306   630A      0.568087  
     631A      0.568495   632A      0.571618   633A      0.572911  
     634A      0.573592   635A      0.575288   636A      0.576036  
     637A      0.578745   638A      0.579357   639A      0.580359  
     640A      0.584551   641A      0.585567   642A      0.586707  
     643A      0.588856   644A      0.589044   645A      0.590908  
     646A      0.591274   647A      0.591755   648A      0.593126  
     649A      0.594521   650A      0.595013   651A      0.597438  
     652A      0.598864   653A      0.599820   654A      0.601993  
     655A      0.602715   656A      0.603583   657A      0.604969  
     658A      0.606235   659A      0.608106   660A      0.610697  
     661A      0.611753   662A      0.612753   663A      0.614531  
     664A      0.615695   665A      0.618572   666A      0.619242  
     667A      0.621503   668A      0.623228   669A      0.623584  
     670A      0.624712   671A      0.625676   672A      0.626365  
     673A      0.626991   674A      0.628216   675A      0.630925  
     676A      0.632714   677A      0.634152   678A      0.635859  
     679A      0.636504   680A      0.636609   681A      0.637692  
     682A      0.639160   683A      0.640555   684A      0.642245  
     685A      0.643955   686A      0.644118   687A      0.646210  
     688A      0.646806   689A      0.648117   690A      0.649511  
     691A      0.651187   692A      0.651918   693A      0.652441  
     694A      0.654451   695A      0.654984   696A      0.657636  
     697A      0.659009   698A      0.660146   699A      0.661502  
     700A      0.661692   701A      0.663968   702A      0.664504  
     703A      0.664956   704A      0.666108   705A      0.667499  
     706A      0.668614   707A      0.669133   708A      0.670267  
     709A      0.671676   710A      0.672402   711A      0.673066  
     712A      0.674705   713A      0.676766   714A      0.677970  
     715A      0.678368   716A      0.680363   717A      0.681568  
     718A      0.683334   719A      0.683959   720A      0.685000  
     721A      0.685475   722A      0.686899   723A      0.688255  
     724A      0.689364   725A      0.690523   726A      0.690797  
     727A      0.693528   728A      0.695508   729A      0.696307  
     730A      0.697152   731A      0.697721   732A      0.698094  
     733A      0.700267   734A      0.700852   735A      0.702240  
     736A      0.703975   737A      0.704677   738A      0.706692  
     739A      0.706949   740A      0.707530   741A      0.708757  
     742A      0.709766   743A      0.710332   744A      0.713095  
     745A      0.713943   746A      0.715717   747A      0.716885  
     748A      0.717793   749A      0.717932   750A      0.721066  
     751A      0.721942   752A      0.723696   753A      0.723747  
     754A      0.724865   755A      0.725585   756A      0.727061  
     757A      0.727944   758A      0.729350   759A      0.730531  
     760A      0.730940   761A      0.732544   762A      0.733004  
     763A      0.734407   764A      0.735776   765A      0.736976  
     766A      0.738641   767A      0.739252   768A      0.739683  
     769A      0.740569   770A      0.741524   771A      0.741951  
     772A      0.743813   773A      0.744535   774A      0.745838  
     775A      0.747812   776A      0.748942   777A      0.750476  
     778A      0.751450   779A      0.751687   780A      0.752283  
     781A      0.754811   782A      0.756557   783A      0.757122  
     784A      0.759320   785A      0.759854   786A      0.760692  
     787A      0.762291   788A      0.763525   789A      0.765647  
     790A      0.766739   791A      0.767854   792A      0.768785  
     793A      0.770030   794A      0.770359   795A      0.771683  
     796A      0.773296   797A      0.773622   798A      0.774664  
     799A      0.775026   800A      0.776510   801A      0.777571  
     802A      0.777955   803A      0.779583   804A      0.781003  
     805A      0.783087   806A      0.784397   807A      0.784611  
     808A      0.785889   809A      0.787045   810A      0.787989  
     811A      0.788531   812A      0.788715   813A      0.789290  
     814A      0.792289   815A      0.793385   816A      0.793735  
     817A      0.795262   818A      0.796537   819A      0.798945  
     820A      0.799290   821A      0.799927   822A      0.801592  
     823A      0.802435   824A      0.804003   825A      0.805127  
     826A      0.806703   827A      0.807264   828A      0.807901  
     829A      0.809392   830A      0.811719   831A      0.811836  
     832A      0.813908   833A      0.814479   834A      0.816080  
     835A      0.817019   836A      0.818095   837A      0.819653  
     838A      0.821657   839A      0.822012   840A      0.822714  
     841A      0.824472   842A      0.825150   843A      0.825965  
     844A      0.826595   845A      0.827561   846A      0.828552  
     847A      0.830110   848A      0.831623   849A      0.833461  
     850A      0.834066   851A      0.835138   852A      0.836775  
     853A      0.837019   854A      0.838769   855A      0.841109  
     856A      0.842063   857A      0.844564   858A      0.845638  
     859A      0.845997   860A      0.846878   861A      0.847788  
     862A      0.849031   863A      0.850942   864A      0.851814  
     865A      0.852466   866A      0.853577   867A      0.856603  
     868A      0.858368   869A      0.858638   870A      0.859912  
     871A      0.861325   872A      0.862890   873A      0.864119  
     874A      0.865302   875A      0.867017   876A      0.867832  
     877A      0.868493   878A      0.869754   879A      0.869860  
     880A      0.871191   881A      0.871682   882A      0.873497  
     883A      0.874652   884A      0.875810   885A      0.876791  
     886A      0.877632   887A      0.878627   888A      0.881526  
     889A      0.881657   890A      0.882739   891A      0.883711  
     892A      0.884773   893A      0.886665   894A      0.887082  
     895A      0.887985   896A      0.889898   897A      0.892478  
     898A      0.892976   899A      0.894039   900A      0.894888  
     901A      0.895543   902A      0.897318   903A      0.898706  
     904A      0.899115   905A      0.900161   906A      0.901372  
     907A      0.903369   908A      0.904847   909A      0.906314  
     910A      0.906630   911A      0.908176   912A      0.911721  
     913A      0.913334   914A      0.913970   915A      0.914711  
     916A      0.916375   917A      0.918242   918A      0.919160  
     919A      0.920267   920A      0.920917   921A      0.922266  
     922A      0.924024   923A      0.924266   924A      0.925054  
     925A      0.926562   926A      0.927764   927A      0.927896  
     928A      0.928314   929A      0.929637   930A      0.931896  
     931A      0.933772   932A      0.934388   933A      0.935377  
     934A      0.935649   935A      0.937949   936A      0.938264  
     937A      0.939522   938A      0.940736   939A      0.942615  
     940A      0.944212   941A      0.945708   942A      0.946957  
     943A      0.947498   944A      0.948395   945A      0.950295  
     946A      0.952335   947A      0.953418   948A      0.955801  
     949A      0.957038   950A      0.958233   951A      0.958346  
     952A      0.958767   953A      0.959612   954A      0.961472  
     955A      0.962799   956A      0.963118   957A      0.965060  
     958A      0.966641   959A      0.966906   960A      0.969244  
     961A      0.970411   962A      0.970569   963A      0.972020  
     964A      0.972418   965A      0.974947   966A      0.976260  
     967A      0.978078   968A      0.978380   969A      0.979252  
     970A      0.981549   971A      0.983153   972A      0.983412  
     973A      0.983571   974A      0.986352   975A      0.986854  
     976A      0.987852   977A      0.989886   978A      0.990701  
     979A      0.991592   980A      0.994597   981A      0.997487  
     982A      0.998342   983A      0.998682   984A      1.001076  
     985A      1.001493   986A      1.001751   987A      1.003476  
     988A      1.005491   989A      1.006696   990A      1.007879  
     991A      1.009713   992A      1.010647   993A      1.012062  
     994A      1.012918   995A      1.014734   996A      1.016724  
     997A      1.017983   998A      1.019159   999A      1.020526  
    1000A      1.021348  1001A      1.021940  1002A      1.022711  
    1003A      1.023778  1004A      1.025456  1005A      1.025755  
    1006A      1.028083  1007A      1.029525  1008A      1.031744  
    1009A      1.032728  1010A      1.033905  1011A      1.034980  
    1012A      1.036003  1013A      1.038446  1014A      1.039880  
    1015A      1.040066  1016A      1.040765  1017A      1.042481  
    1018A      1.043875  1019A      1.044204  1020A      1.045840  
    1021A      1.048610  1022A      1.050408  1023A      1.053364  
    1024A      1.053773  1025A      1.053956  1026A      1.055214  
    1027A      1.055797  1028A      1.057552  1029A      1.059772  
    1030A      1.061621  1031A      1.062868  1032A      1.064513  
    1033A      1.065716  1034A      1.066292  1035A      1.067978  
    1036A      1.070588  1037A      1.071941  1038A      1.073685  
    1039A      1.075788  1040A      1.076273  1041A      1.076689  
    1042A      1.077994  1043A      1.080501  1044A      1.081840  
    1045A      1.082967  1046A      1.084027  1047A      1.086490  
    1048A      1.086510  1049A      1.087487  1050A      1.089935  
    1051A      1.090888  1052A      1.091534  1053A      1.093216  
    1054A      1.094152  1055A      1.094948  1056A      1.096912  
    1057A      1.097317  1058A      1.098670  1059A      1.101789  
    1060A      1.103274  1061A      1.104468  1062A      1.106703  
    1063A      1.108151  1064A      1.110152  1065A      1.111112  
    1066A      1.112451  1067A      1.113890  1068A      1.115631  
    1069A      1.117806  1070A      1.119570  1071A      1.120578  
    1072A      1.120671  1073A      1.123288  1074A      1.123762  
    1075A      1.125090  1076A      1.125976  1077A      1.126676  
    1078A      1.129260  1079A      1.129386  1080A      1.130250  
    1081A      1.130920  1082A      1.131559  1083A      1.132363  
    1084A      1.132986  1085A      1.134385  1086A      1.137040  
    1087A      1.138827  1088A      1.140891  1089A      1.141454  
    1090A      1.142968  1091A      1.144639  1092A      1.145205  
    1093A      1.146249  1094A      1.148293  1095A      1.148774  
    1096A      1.150686  1097A      1.150856  1098A      1.151650  
    1099A      1.154289  1100A      1.155209  1101A      1.156109  
    1102A      1.157989  1103A      1.160553  1104A      1.161796  
    1105A      1.162561  1106A      1.164052  1107A      1.166476  
    1108A      1.167604  1109A      1.169169  1110A      1.170493  
    1111A      1.171513  1112A      1.172274  1113A      1.173249  
    1114A      1.176173  1115A      1.178664  1116A      1.179815  
    1117A      1.180572  1118A      1.181372  1119A      1.182915  
    1120A      1.184683  1121A      1.187341  1122A      1.188098  
    1123A      1.190183  1124A      1.190926  1125A      1.191801  
    1126A      1.193047  1127A      1.195194  1128A      1.196971  
    1129A      1.197419  1130A      1.199998  1131A      1.201092  
    1132A      1.201897  1133A      1.203765  1134A      1.204582  
    1135A      1.205767  1136A      1.207374  1137A      1.207780  
    1138A      1.208894  1139A      1.209774  1140A      1.212230  
    1141A      1.212662  1142A      1.214518  1143A      1.215600  
    1144A      1.217569  1145A      1.218749  1146A      1.220102  
    1147A      1.223311  1148A      1.224338  1149A      1.226317  
    1150A      1.227261  1151A      1.229763  1152A      1.231568  
    1153A      1.232517  1154A      1.232686  1155A      1.233405  
    1156A      1.234295  1157A      1.235011  1158A      1.236813  
    1159A      1.239244  1160A      1.240337  1161A      1.241102  
    1162A      1.242765  1163A      1.245206  1164A      1.245644  
    1165A      1.246486  1166A      1.246942  1167A      1.248107  
    1168A      1.248424  1169A      1.250234  1170A      1.252144  
    1171A      1.255123  1172A      1.256099  1173A      1.258393  
    1174A      1.259173  1175A      1.260312  1176A      1.262399  
    1177A      1.264741  1178A      1.266623  1179A      1.267009  
    1180A      1.269057  1181A      1.269600  1182A      1.270255  
    1183A      1.271805  1184A      1.273419  1185A      1.273968  
    1186A      1.274761  1187A      1.276318  1188A      1.278942  
    1189A      1.279551  1190A      1.281335  1191A      1.282559  
    1192A      1.283914  1193A      1.284270  1194A      1.284706  
    1195A      1.286906  1196A      1.290045  1197A      1.291069  
    1198A      1.291742  1199A      1.294652  1200A      1.295098  
    1201A      1.296731  1202A      1.296997  1203A      1.297341  
    1204A      1.298348  1205A      1.301095  1206A      1.303741  
    1207A      1.304505  1208A      1.306476  1209A      1.307706  
    1210A      1.311256  1211A      1.312458  1212A      1.312950  
    1213A      1.314518  1214A      1.316143  1215A      1.317529  
    1216A      1.319889  1217A      1.320470  1218A      1.323389  
    1219A      1.324665  1220A      1.325628  1221A      1.326489  
    1222A      1.327719  1223A      1.329632  1224A      1.332269  
    1225A      1.333125  1226A      1.334276  1227A      1.338025  
    1228A      1.338740  1229A      1.341723  1230A      1.342499  
    1231A      1.345525  1232A      1.346094  1233A      1.348627  
    1234A      1.350211  1235A      1.354089  1236A      1.354573  
    1237A      1.355271  1238A      1.358258  1239A      1.359016  
    1240A      1.360277  1241A      1.362819  1242A      1.363758  
    1243A      1.365857  1244A      1.366773  1245A      1.368379  
    1246A      1.370190  1247A      1.370771  1248A      1.371824  
    1249A      1.376174  1250A      1.376778  1251A      1.378161  
    1252A      1.380548  1253A      1.381313  1254A      1.382179  
    1255A      1.385702  1256A      1.388648  1257A      1.389935  
    1258A      1.390702  1259A      1.392433  1260A      1.394230  
    1261A      1.395732  1262A      1.397415  1263A      1.398408  
    1264A      1.399135  1265A      1.401287  1266A      1.402314  
    1267A      1.403428  1268A      1.403922  1269A      1.409218  
    1270A      1.409866  1271A      1.410348  1272A      1.412249  
    1273A      1.412972  1274A      1.415689  1275A      1.417533  
    1276A      1.417707  1277A      1.419309  1278A      1.421281  
    1279A      1.422058  1280A      1.423614  1281A      1.424965  
    1282A      1.425339  1283A      1.426231  1284A      1.428449  
    1285A      1.431714  1286A      1.432272  1287A      1.432883  
    1288A      1.436665  1289A      1.436925  1290A      1.440001  
    1291A      1.441870  1292A      1.442973  1293A      1.443940  
    1294A      1.446047  1295A      1.449693  1296A      1.451769  
    1297A      1.453155  1298A      1.453396  1299A      1.455345  
    1300A      1.456949  1301A      1.459258  1302A      1.460424  
    1303A      1.460868  1304A      1.463096  1305A      1.463187  
    1306A      1.465569  1307A      1.467607  1308A      1.468388  
    1309A      1.471532  1310A      1.473338  1311A      1.473897  
    1312A      1.477577  1313A      1.478499  1314A      1.480759  
    1315A      1.484108  1316A      1.485074  1317A      1.486327  
    1318A      1.486955  1319A      1.487065  1320A      1.489387  
    1321A      1.492676  1322A      1.492701  1323A      1.494178  
    1324A      1.495483  1325A      1.498380  1326A      1.498927  
    1327A      1.500213  1328A      1.503465  1329A      1.505143  
    1330A      1.506497  1331A      1.507472  1332A      1.508868  
    1333A      1.511137  1334A      1.516114  1335A      1.518082  
    1336A      1.518482  1337A      1.521057  1338A      1.523742  
    1339A      1.524684  1340A      1.525227  1341A      1.527834  
    1342A      1.530306  1343A      1.531269  1344A      1.532548  
    1345A      1.533026  1346A      1.535984  1347A      1.536463  
    1348A      1.538433  1349A      1.540900  1350A      1.541892  
    1351A      1.543836  1352A      1.546352  1353A      1.547848  
    1354A      1.549625  1355A      1.550800  1356A      1.551997  
    1357A      1.553414  1358A      1.554653  1359A      1.556047  
    1360A      1.558585  1361A      1.560160  1362A      1.561633  
    1363A      1.562264  1364A      1.563743  1365A      1.566437  
    1366A      1.567151  1367A      1.570518  1368A      1.571003  
    1369A      1.571605  1370A      1.571728  1371A      1.574876  
    1372A      1.575099  1373A      1.576319  1374A      1.578653  
    1375A      1.580251  1376A      1.582257  1377A      1.583572  
    1378A      1.585829  1379A      1.588503  1380A      1.590662  
    1381A      1.591428  1382A      1.594178  1383A      1.594929  
    1384A      1.595463  1385A      1.596849  1386A      1.598609  
    1387A      1.600104  1388A      1.602247  1389A      1.602830  
    1390A      1.604155  1391A      1.606971  1392A      1.608246  
    1393A      1.608601  1394A      1.609116  1395A      1.611841  
    1396A      1.614595  1397A      1.615109  1398A      1.617987  
    1399A      1.619673  1400A      1.621351  1401A      1.622087  
    1402A      1.625705  1403A      1.627098  1404A      1.627700  
    1405A      1.631130  1406A      1.632512  1407A      1.634352  
    1408A      1.635699  1409A      1.637030  1410A      1.638399  
    1411A      1.641561  1412A      1.642616  1413A      1.644617  
    1414A      1.645784  1415A      1.646668  1416A      1.647139  
    1417A      1.649581  1418A      1.650353  1419A      1.652714  
    1420A      1.654673  1421A      1.657962  1422A      1.659981  
    1423A      1.661097  1424A      1.662863  1425A      1.666100  
    1426A      1.667557  1427A      1.669879  1428A      1.671027  
    1429A      1.672886  1430A      1.673824  1431A      1.675246  
    1432A      1.678106  1433A      1.678616  1434A      1.679863  
    1435A      1.681696  1436A      1.682570  1437A      1.682923  
    1438A      1.684264  1439A      1.687144  1440A      1.688171  
    1441A      1.690034  1442A      1.692155  1443A      1.692389  
    1444A      1.694501  1445A      1.696037  1446A      1.699589  
    1447A      1.700395  1448A      1.702168  1449A      1.704109  
    1450A      1.704905  1451A      1.706209  1452A      1.707646  
    1453A      1.709760  1454A      1.711183  1455A      1.714242  
    1456A      1.715590  1457A      1.719201  1458A      1.720108  
    1459A      1.720646  1460A      1.722018  1461A      1.722991  
    1462A      1.725916  1463A      1.728507  1464A      1.729401  
    1465A      1.730595  1466A      1.731540  1467A      1.732038  
    1468A      1.733586  1469A      1.734441  1470A      1.737464  
    1471A      1.739512  1472A      1.739961  1473A      1.740736  
    1474A      1.742089  1475A      1.746926  1476A      1.747557  
    1477A      1.751019  1478A      1.751405  1479A      1.753895  
    1480A      1.755377  1481A      1.756600  1482A      1.758092  
    1483A      1.761757  1484A      1.762371  1485A      1.763590  
    1486A      1.764848  1487A      1.765602  1488A      1.768791  
    1489A      1.769527  1490A      1.770829  1491A      1.773871  
    1492A      1.774411  1493A      1.776561  1494A      1.777918  
    1495A      1.779584  1496A      1.780614  1497A      1.781285  
    1498A      1.784092  1499A      1.786611  1500A      1.787433  
    1501A      1.789010  1502A      1.790393  1503A      1.792909  
    1504A      1.793533  1505A      1.795544  1506A      1.796135  
    1507A      1.797517  1508A      1.798504  1509A      1.801922  
    1510A      1.804713  1511A      1.806370  1512A      1.807320  
    1513A      1.807736  1514A      1.808720  1515A      1.811148  
    1516A      1.812575  1517A      1.813502  1518A      1.815765  
    1519A      1.817011  1520A      1.818942  1521A      1.821337  
    1522A      1.823085  1523A      1.824012  1524A      1.826308  
    1525A      1.826963  1526A      1.828811  1527A      1.829254  
    1528A      1.831118  1529A      1.832074  1530A      1.834079  
    1531A      1.836070  1532A      1.838550  1533A      1.839284  
    1534A      1.840518  1535A      1.841488  1536A      1.842382  
    1537A      1.842859  1538A      1.847141  1539A      1.848077  
    1540A      1.849067  1541A      1.849401  1542A      1.851052  
    1543A      1.853053  1544A      1.854488  1545A      1.856247  
    1546A      1.858008  1547A      1.860003  1548A      1.860788  
    1549A      1.861350  1550A      1.862266  1551A      1.864859  
    1552A      1.865002  1553A      1.868232  1554A      1.868840  
    1555A      1.870329  1556A      1.873764  1557A      1.875183  
    1558A      1.875457  1559A      1.877708  1560A      1.877937  
    1561A      1.879669  1562A      1.882362  1563A      1.883779  
    1564A      1.884730  1565A      1.885491  1566A      1.888466  
    1567A      1.891062  1568A      1.892771  1569A      1.893353  
    1570A      1.894395  1571A      1.895278  1572A      1.896149  
    1573A      1.897708  1574A      1.898228  1575A      1.898844  
    1576A      1.901725  1577A      1.901895  1578A      1.904095  
    1579A      1.904350  1580A      1.908698  1581A      1.909187  
    1582A      1.914201  1583A      1.915701  1584A      1.916151  
    1585A      1.917837  1586A      1.918090  1587A      1.919719  
    1588A      1.921606  1589A      1.922051  1590A      1.923487  
    1591A      1.924954  1592A      1.926014  1593A      1.926384  
    1594A      1.929178  1595A      1.931078  1596A      1.933394  
    1597A      1.934215  1598A      1.934580  1599A      1.935716  
    1600A      1.938611  1601A      1.942037  1602A      1.944143  
    1603A      1.944788  1604A      1.947160  1605A      1.948648  
    1606A      1.949647  1607A      1.950662  1608A      1.952291  
    1609A      1.953186  1610A      1.955691  1611A      1.955961  
    1612A      1.957385  1613A      1.958158  1614A      1.960213  
    1615A      1.962635  1616A      1.965158  1617A      1.965392  
    1618A      1.967677  1619A      1.969784  1620A      1.970211  
    1621A      1.971427  1622A      1.973020  1623A      1.973969  
    1624A      1.976012  1625A      1.977383  1626A      1.979370  
    1627A      1.979835  1628A      1.981567  1629A      1.981942  
    1630A      1.983371  1631A      1.984238  1632A      1.985444  
    1633A      1.988974  1634A      1.990613  1635A      1.991986  
    1636A      1.993505  1637A      1.994890  1638A      1.995362  
    1639A      1.996142  1640A      1.997352  1641A      1.999453  
    1642A      2.000928  1643A      2.001810  1644A      2.002616  
    1645A      2.004691  1646A      2.005557  1647A      2.007817  
    1648A      2.009601  1649A      2.009783  1650A      2.011696  
    1651A      2.013479  1652A      2.015864  1653A      2.019367  
    1654A      2.021742  1655A      2.022054  1656A      2.022629  
    1657A      2.023204  1658A      2.024400  1659A      2.025784  
    1660A      2.027556  1661A      2.027851  1662A      2.028661  
    1663A      2.031219  1664A      2.033501  1665A      2.035552  
    1666A      2.037579  1667A      2.038307  1668A      2.040078  
    1669A      2.041903  1670A      2.044034  1671A      2.046168  
    1672A      2.046983  1673A      2.047202  1674A      2.050032  
    1675A      2.052484  1676A      2.053223  1677A      2.054353  
    1678A      2.056344  1679A      2.057785  1680A      2.058786  
    1681A      2.061482  1682A      2.062349  1683A      2.063632  
    1684A      2.066009  1685A      2.067295  1686A      2.068833  
    1687A      2.073805  1688A      2.074086  1689A      2.074588  
    1690A      2.075423  1691A      2.076210  1692A      2.077463  
    1693A      2.078611  1694A      2.078827  1695A      2.080366  
    1696A      2.082943  1697A      2.085249  1698A      2.086897  
    1699A      2.087897  1700A      2.089199  1701A      2.090287  
    1702A      2.090570  1703A      2.090968  1704A      2.092659  
    1705A      2.094547  1706A      2.094790  1707A      2.096894  
    1708A      2.099153  1709A      2.101110  1710A      2.101718  
    1711A      2.103035  1712A      2.103825  1713A      2.105105  
    1714A      2.108818  1715A      2.110380  1716A      2.111203  
    1717A      2.112421  1718A      2.114957  1719A      2.116336  
    1720A      2.117084  1721A      2.117567  1722A      2.117706  
    1723A      2.120248  1724A      2.121671  1725A      2.122794  
    1726A      2.125800  1727A      2.127579  1728A      2.128205  
    1729A      2.128958  1730A      2.129772  1731A      2.131008  
    1732A      2.134731  1733A      2.136333  1734A      2.137746  
    1735A      2.139057  1736A      2.141687  1737A      2.142963  
    1738A      2.143053  1739A      2.144027  1740A      2.146229  
    1741A      2.148193  1742A      2.149524  1743A      2.149889  
    1744A      2.150086  1745A      2.152264  1746A      2.154089  
    1747A      2.154656  1748A      2.156384  1749A      2.157526  
    1750A      2.157978  1751A      2.160615  1752A      2.162873  
    1753A      2.164497  1754A      2.167475  1755A      2.169549  
    1756A      2.170822  1757A      2.173178  1758A      2.174148  
    1759A      2.174606  1760A      2.176153  1761A      2.177604  
    1762A      2.179921  1763A      2.180415  1764A      2.180816  
    1765A      2.182157  1766A      2.184280  1767A      2.184746  
    1768A      2.185132  1769A      2.186529  1770A      2.188069  
    1771A      2.188352  1772A      2.189071  1773A      2.193257  
    1774A      2.195092  1775A      2.197102  1776A      2.198860  
    1777A      2.198897  1778A      2.199720  1779A      2.203037  
    1780A      2.203359  1781A      2.204272  1782A      2.205416  
    1783A      2.208431  1784A      2.209932  1785A      2.210349  
    1786A      2.212562  1787A      2.213198  1788A      2.213369  
    1789A      2.215428  1790A      2.217340  1791A      2.217875  
    1792A      2.218440  1793A      2.218766  1794A      2.219616  
    1795A      2.220886  1796A      2.222959  1797A      2.225368  
    1798A      2.227177  1799A      2.227700  1800A      2.230069  
    1801A      2.230950  1802A      2.231609  1803A      2.233453  
    1804A      2.234146  1805A      2.235678  1806A      2.238076  
    1807A      2.239411  1808A      2.240204  1809A      2.240461  
    1810A      2.242045  1811A      2.243106  1812A      2.243779  
    1813A      2.245232  1814A      2.248796  1815A      2.250463  
    1816A      2.251052  1817A      2.253564  1818A      2.253941  
    1819A      2.255983  1820A      2.256235  1821A      2.258342  
    1822A      2.260433  1823A      2.261295  1824A      2.262640  
    1825A      2.263112  1826A      2.264713  1827A      2.266910  
    1828A      2.267258  1829A      2.267624  1830A      2.268311  
    1831A      2.269775  1832A      2.270124  1833A      2.270471  
    1834A      2.272658  1835A      2.273663  1836A      2.274621  
    1837A      2.275053  1838A      2.276682  1839A      2.278725  
    1840A      2.281091  1841A      2.281362  1842A      2.281798  
    1843A      2.282778  1844A      2.284439  1845A      2.286879  
    1846A      2.288866  1847A      2.289615  1848A      2.293902  
    1849A      2.295585  1850A      2.296991  1851A      2.298659  
    1852A      2.299364  1853A      2.301753  1854A      2.302534  
    1855A      2.304263  1856A      2.305315  1857A      2.307203  
    1858A      2.309690  1859A      2.310303  1860A      2.311043  
    1861A      2.313354  1862A      2.314274  1863A      2.316471  
    1864A      2.317229  1865A      2.317738  1866A      2.320756  
    1867A      2.322907  1868A      2.323436  1869A      2.324235  
    1870A      2.326244  1871A      2.326408  1872A      2.329733  
    1873A      2.331057  1874A      2.334314  1875A      2.335320  
    1876A      2.335780  1877A      2.336983  1878A      2.337898  
    1879A      2.339053  1880A      2.341667  1881A      2.342459  
    1882A      2.344187  1883A      2.346077  1884A      2.347704  
    1885A      2.350178  1886A      2.352844  1887A      2.354590  
    1888A      2.355994  1889A      2.358223  1890A      2.359504  
    1891A      2.360739  1892A      2.361230  1893A      2.363893  
    1894A      2.367090  1895A      2.367350  1896A      2.368380  
    1897A      2.369367  1898A      2.370414  1899A      2.371035  
    1900A      2.371164  1901A      2.373407  1902A      2.374697  
    1903A      2.375451  1904A      2.379162  1905A      2.379728  
    1906A      2.381028  1907A      2.381957  1908A      2.382607  
    1909A      2.385186  1910A      2.386567  1911A      2.388451  
    1912A      2.389966  1913A      2.390998  1914A      2.391910  
    1915A      2.392915  1916A      2.394759  1917A      2.397298  
    1918A      2.398152  1919A      2.399878  1920A      2.405660  
    1921A      2.408120  1922A      2.409327  1923A      2.410609  
    1924A      2.412585  1925A      2.413739  1926A      2.416665  
    1927A      2.417036  1928A      2.418080  1929A      2.419443  
    1930A      2.420958  1931A      2.422148  1932A      2.423248  
    1933A      2.423791  1934A      2.424994  1935A      2.426795  
    1936A      2.428484  1937A      2.429509  1938A      2.431202  
    1939A      2.431854  1940A      2.433005  1941A      2.435137  
    1942A      2.437126  1943A      2.439151  1944A      2.440884  
    1945A      2.442019  1946A      2.443873  1947A      2.446902  
    1948A      2.448529  1949A      2.451062  1950A      2.452893  
    1951A      2.454539  1952A      2.457043  1953A      2.457273  
    1954A      2.459618  1955A      2.460652  1956A      2.462444  
    1957A      2.464531  1958A      2.466012  1959A      2.466329  
    1960A      2.469857  1961A      2.470625  1962A      2.473190  
    1963A      2.474663  1964A      2.475596  1965A      2.477803  
    1966A      2.479495  1967A      2.479769  1968A      2.481475  
    1969A      2.484064  1970A      2.484951  1971A      2.486310  
    1972A      2.488592  1973A      2.489481  1974A      2.490799  
    1975A      2.493815  1976A      2.496040  1977A      2.496341  
    1978A      2.497199  1979A      2.497642  1980A      2.499641  
    1981A      2.500139  1982A      2.503131  1983A      2.506576  
    1984A      2.509055  1985A      2.511989  1986A      2.512302  
    1987A      2.512787  1988A      2.514340  1989A      2.515970  
    1990A      2.517215  1991A      2.517720  1992A      2.522394  
    1993A      2.523585  1994A      2.524777  1995A      2.526428  
    1996A      2.529388  1997A      2.530245  1998A      2.532975  
    1999A      2.534251  2000A      2.536869  2001A      2.537446  
    2002A      2.539642  2003A      2.540942  2004A      2.542759  
    2005A      2.544665  2006A      2.545014  2007A      2.548527  
    2008A      2.549751  2009A      2.551603  2010A      2.553394  
    2011A      2.555101  2012A      2.557639  2013A      2.560355  
    2014A      2.560709  2015A      2.562361  2016A      2.562916  
    2017A      2.564925  2018A      2.566970  2019A      2.569638  
    2020A      2.571211  2021A      2.572861  2022A      2.576120  
    2023A      2.577044  2024A      2.578453  2025A      2.578820  
    2026A      2.579461  2027A      2.583096  2028A      2.584316  
    2029A      2.586967  2030A      2.589490  2031A      2.591410  
    2032A      2.592259  2033A      2.595553  2034A      2.596816  
    2035A      2.599067  2036A      2.599650  2037A      2.602499  
    2038A      2.605812  2039A      2.608246  2040A      2.608749  
    2041A      2.610118  2042A      2.612032  2043A      2.612756  
    2044A      2.616347  2045A      2.616899  2046A      2.619489  
    2047A      2.622370  2048A      2.625579  2049A      2.628299  
    2050A      2.628989  2051A      2.630130  2052A      2.635653  
    2053A      2.636590  2054A      2.639305  2055A      2.640107  
    2056A      2.641983  2057A      2.643213  2058A      2.644042  
    2059A      2.644106  2060A      2.645236  2061A      2.649046  
    2062A      2.650491  2063A      2.651021  2064A      2.652843  
    2065A      2.654318  2066A      2.659044  2067A      2.659928  
    2068A      2.660564  2069A      2.663298  2070A      2.665812  
    2071A      2.666636  2072A      2.670015  2073A      2.670513  
    2074A      2.673834  2075A      2.675223  2076A      2.677442  
    2077A      2.679761  2078A      2.681058  2079A      2.684607  
    2080A      2.686038  2081A      2.689631  2082A      2.691794  
    2083A      2.692799  2084A      2.693402  2085A      2.695071  
    2086A      2.695669  2087A      2.697321  2088A      2.698450  
    2089A      2.699978  2090A      2.703145  2091A      2.705525  
    2092A      2.709161  2093A      2.710608  2094A      2.712637  
    2095A      2.713175  2096A      2.715589  2097A      2.720124  
    2098A      2.720747  2099A      2.721977  2100A      2.726253  
    2101A      2.728365  2102A      2.730152  2103A      2.731048  
    2104A      2.734990  2105A      2.735691  2106A      2.736781  
    2107A      2.738176  2108A      2.739991  2109A      2.743475  
    2110A      2.744162  2111A      2.750121  2112A      2.750498  
    2113A      2.754250  2114A      2.755535  2115A      2.758214  
    2116A      2.760935  2117A      2.761221  2118A      2.763126  
    2119A      2.764924  2120A      2.767464  2121A      2.769755  
    2122A      2.770144  2123A      2.770188  2124A      2.772787  
    2125A      2.773885  2126A      2.777168  2127A      2.779174  
    2128A      2.780809  2129A      2.784097  2130A      2.787097  
    2131A      2.789873  2132A      2.791178  2133A      2.792525  
    2134A      2.796236  2135A      2.798216  2136A      2.799420  
    2137A      2.799949  2138A      2.801649  2139A      2.804858  
    2140A      2.805882  2141A      2.808752  2142A      2.810056  
    2143A      2.813737  2144A      2.814111  2145A      2.819719  
    2146A      2.821021  2147A      2.821678  2148A      2.822783  
    2149A      2.824053  2150A      2.825117  2151A      2.827696  
    2152A      2.828936  2153A      2.830910  2154A      2.834653  
    2155A      2.836511  2156A      2.838680  2157A      2.839015  
    2158A      2.841467  2159A      2.843507  2160A      2.845666  
    2161A      2.848464  2162A      2.850793  2163A      2.851955  
    2164A      2.854083  2165A      2.854508  2166A      2.856595  
    2167A      2.857925  2168A      2.858931  2169A      2.860299  
    2170A      2.863684  2171A      2.869521  2172A      2.870705  
    2173A      2.875589  2174A      2.876430  2175A      2.876596  
    2176A      2.876962  2177A      2.880239  2178A      2.882172  
    2179A      2.882844  2180A      2.884094  2181A      2.887716  
    2182A      2.889667  2183A      2.892712  2184A      2.896073  
    2185A      2.897457  2186A      2.898010  2187A      2.899599  
    2188A      2.900004  2189A      2.902869  2190A      2.905568  
    2191A      2.909476  2192A      2.912945  2193A      2.914050  
    2194A      2.915390  2195A      2.915466  2196A      2.917784  
    2197A      2.918612  2198A      2.919661  2199A      2.923158  
    2200A      2.923712  2201A      2.925271  2202A      2.926080  
    2203A      2.927605  2204A      2.931895  2205A      2.934557  
    2206A      2.935009  2207A      2.935309  2208A      2.938011  
    2209A      2.939885  2210A      2.945036  2211A      2.945958  
    2212A      2.948549  2213A      2.949031  2214A      2.950006  
    2215A      2.952872  2216A      2.954179  2217A      2.955026  
    2218A      2.960048  2219A      2.960679  2220A      2.960945  
    2221A      2.962746  2222A      2.965165  2223A      2.970337  
    2224A      2.971177  2225A      2.972382  2226A      2.973004  
    2227A      2.978307  2228A      2.980058  2229A      2.981528  
    2230A      2.985291  2231A      2.988700  2232A      2.989762  
    2233A      2.991035  2234A      2.995866  2235A      2.997311  
    2236A      2.998344  2237A      2.999427  2238A      3.001631  
    2239A      3.003502  2240A      3.004645  2241A      3.006969  
    2242A      3.008113  2243A      3.008613  2244A      3.010796  
    2245A      3.012579  2246A      3.017318  2247A      3.018189  
    2248A      3.022678  2249A      3.024898  2250A      3.026344  
    2251A      3.029079  2252A      3.030300  2253A      3.032224  
    2254A      3.032479  2255A      3.033318  2256A      3.037254  
    2257A      3.037610  2258A      3.039676  2259A      3.042882  
    2260A      3.043647  2261A      3.045381  2262A      3.046617  
    2263A      3.049284  2264A      3.050813  2265A      3.052337  
    2266A      3.053081  2267A      3.054744  2268A      3.056797  
    2269A      3.058645  2270A      3.059880  2271A      3.061412  
    2272A      3.062033  2273A      3.062817  2274A      3.064151  
    2275A      3.065699  2276A      3.066802  2277A      3.070374  
    2278A      3.072910  2279A      3.076818  2280A      3.078959  
    2281A      3.080744  2282A      3.081614  2283A      3.082843  
    2284A      3.084660  2285A      3.087202  2286A      3.088064  
    2287A      3.090063  2288A      3.091171  2289A      3.093916  
    2290A      3.095032  2291A      3.096122  2292A      3.097967  
    2293A      3.099826  2294A      3.102072  2295A      3.102601  
    2296A      3.106546  2297A      3.106896  2298A      3.108222  
    2299A      3.112088  2300A      3.115072  2301A      3.115998  
    2302A      3.117892  2303A      3.118738  2304A      3.121831  
    2305A      3.122681  2306A      3.124358  2307A      3.128423  
    2308A      3.129025  2309A      3.132078  2310A      3.133071  
    2311A      3.134471  2312A      3.138137  2313A      3.141118  
    2314A      3.145721  2315A      3.147061  2316A      3.148151  
    2317A      3.148948  2318A      3.151122  2319A      3.151616  
    2320A      3.152113  2321A      3.154447  2322A      3.155958  
    2323A      3.158213  2324A      3.160026  2325A      3.161494  
    2326A      3.163402  2327A      3.166938  2328A      3.171314  
    2329A      3.173653  2330A      3.175599  2331A      3.177037  
    2332A      3.178550  2333A      3.181428  2334A      3.182079  
    2335A      3.184641  2336A      3.185433  2337A      3.188652  
    2338A      3.190659  2339A      3.194661  2340A      3.195069  
    2341A      3.196402  2342A      3.197277  2343A      3.201399  
    2344A      3.202462  2345A      3.204718  2346A      3.205384  
    2347A      3.206183  2348A      3.206982  2349A      3.211826  
    2350A      3.213662  2351A      3.214501  2352A      3.215911  
    2353A      3.219875  2354A      3.220912  2355A      3.224224  
    2356A      3.226940  2357A      3.228317  2358A      3.229684  
    2359A      3.231270  2360A      3.233028  2361A      3.234975  
    2362A      3.237426  2363A      3.242120  2364A      3.243754  
    2365A      3.244240  2366A      3.246741  2367A      3.251009  
    2368A      3.252211  2369A      3.255584  2370A      3.257951  
    2371A      3.261489  2372A      3.264719  2373A      3.266438  
    2374A      3.266835  2375A      3.268665  2376A      3.269852  
    2377A      3.271016  2378A      3.272930  2379A      3.276621  
    2380A      3.277067  2381A      3.280663  2382A      3.281563  
    2383A      3.289133  2384A      3.291163  2385A      3.292286  
    2386A      3.293878  2387A      3.295137  2388A      3.298708  
    2389A      3.300731  2390A      3.302190  2391A      3.302644  
    2392A      3.306919  2393A      3.309792  2394A      3.311802  
    2395A      3.313422  2396A      3.314336  2397A      3.317285  
    2398A      3.320804  2399A      3.321360  2400A      3.322346  
    2401A      3.323936  2402A      3.325030  2403A      3.328752  
    2404A      3.330416  2405A      3.331804  2406A      3.332822  
    2407A      3.335363  2408A      3.336685  2409A      3.339068  
    2410A      3.341342  2411A      3.343408  2412A      3.345724  
    2413A      3.349253  2414A      3.351140  2415A      3.355854  
    2416A      3.357201  2417A      3.357854  2418A      3.361378  
    2419A      3.362786  2420A      3.363601  2421A      3.365273  
    2422A      3.367292  2423A      3.370708  2424A      3.371210  
    2425A      3.375072  2426A      3.377286  2427A      3.378067  
    2428A      3.379697  2429A      3.382492  2430A      3.384215  
    2431A      3.387894  2432A      3.390814  2433A      3.393043  
    2434A      3.395457  2435A      3.396522  2436A      3.397421  
    2437A      3.400823  2438A      3.402410  2439A      3.404485  
    2440A      3.406353  2441A      3.407866  2442A      3.414860  
    2443A      3.419583  2444A      3.421117  2445A      3.421809  
    2446A      3.423158  2447A      3.425367  2448A      3.428059  
    2449A      3.429135  2450A      3.431348  2451A      3.433726  
    2452A      3.433773  2453A      3.436283  2454A      3.438282  
    2455A      3.439635  2456A      3.441925  2457A      3.447267  
    2458A      3.448773  2459A      3.450367  2460A      3.453011  
    2461A      3.454899  2462A      3.457203  2463A      3.459117  
    2464A      3.459641  2465A      3.462982  2466A      3.467268  
    2467A      3.469895  2468A      3.470037  2469A      3.473717  
    2470A      3.474012  2471A      3.478088  2472A      3.481648  
    2473A      3.484674  2474A      3.486921  2475A      3.489618  
    2476A      3.492230  2477A      3.498317  2478A      3.500151  
    2479A      3.501097  2480A      3.502545  2481A      3.505306  
    2482A      3.507239  2483A      3.508102  2484A      3.509437  
    2485A      3.515006  2486A      3.515440  2487A      3.516550  
    2488A      3.517708  2489A      3.524389  2490A      3.525031  
    2491A      3.529547  2492A      3.530183  2493A      3.531934  
    2494A      3.533545  2495A      3.537282  2496A      3.541908  
    2497A      3.543347  2498A      3.543822  2499A      3.544209  
    2500A      3.548253  2501A      3.548390  2502A      3.549291  
    2503A      3.554526  2504A      3.555320  2505A      3.559133  
    2506A      3.562537  2507A      3.564275  2508A      3.566170  
    2509A      3.568443  2510A      3.569765  2511A      3.574560  
    2512A      3.580179  2513A      3.582678  2514A      3.585702  
    2515A      3.587466  2516A      3.589804  2517A      3.591516  
    2518A      3.593969  2519A      3.596277  2520A      3.597957  
    2521A      3.599131  2522A      3.600419  2523A      3.601738  
    2524A      3.604660  2525A      3.606692  2526A      3.608905  
    2527A      3.609784  2528A      3.612199  2529A      3.613322  
    2530A      3.615566  2531A      3.619034  2532A      3.623067  
    2533A      3.624296  2534A      3.626885  2535A      3.630528  
    2536A      3.634874  2537A      3.635449  2538A      3.636033  
    2539A      3.638645  2540A      3.640067  2541A      3.641213  
    2542A      3.648836  2543A      3.651215  2544A      3.652571  
    2545A      3.656921  2546A      3.661614  2547A      3.662800  
    2548A      3.663504  2549A      3.670546  2550A      3.672117  
    2551A      3.672837  2552A      3.674109  2553A      3.674883  
    2554A      3.681716  2555A      3.685082  2556A      3.686531  
    2557A      3.688218  2558A      3.690257  2559A      3.690786  
    2560A      3.695784  2561A      3.696592  2562A      3.699137  
    2563A      3.701213  2564A      3.704849  2565A      3.706876  
    2566A      3.710764  2567A      3.711742  2568A      3.714199  
    2569A      3.715513  2570A      3.720263  2571A      3.720939  
    2572A      3.723688  2573A      3.725788  2574A      3.727265  
    2575A      3.728971  2576A      3.731500  2577A      3.733552  
    2578A      3.736588  2579A      3.738762  2580A      3.740196  
    2581A      3.743024  2582A      3.743121  2583A      3.746339  
    2584A      3.751382  2585A      3.752856  2586A      3.753839  
    2587A      3.755312  2588A      3.756622  2589A      3.757746  
    2590A      3.758449  2591A      3.763037  2592A      3.764061  
    2593A      3.772019  2594A      3.772206  2595A      3.775315  
    2596A      3.778455  2597A      3.783628  2598A      3.785168  
    2599A      3.787346  2600A      3.787942  2601A      3.792386  
    2602A      3.793151  2603A      3.794621  2604A      3.801354  
    2605A      3.802283  2606A      3.807434  2607A      3.807556  
    2608A      3.808873  2609A      3.810689  2610A      3.813392  
    2611A      3.816490  2612A      3.817759  2613A      3.822496  
    2614A      3.822797  2615A      3.824223  2616A      3.826234  
    2617A      3.830239  2618A      3.834998  2619A      3.836015  
    2620A      3.836501  2621A      3.837302  2622A      3.841600  
    2623A      3.844156  2624A      3.849678  2625A      3.850973  
    2626A      3.852055  2627A      3.856089  2628A      3.860686  
    2629A      3.861439  2630A      3.863501  2631A      3.865915  
    2632A      3.869817  2633A      3.871849  2634A      3.874296  
    2635A      3.879428  2636A      3.885305  2637A      3.887474  
    2638A      3.887812  2639A      3.888163  2640A      3.893691  
    2641A      3.895931  2642A      3.896773  2643A      3.897570  
    2644A      3.899462  2645A      3.900556  2646A      3.904702  
    2647A      3.906901  2648A      3.908458  2649A      3.909538  
    2650A      3.914272  2651A      3.915413  2652A      3.915831  
    2653A      3.916445  2654A      3.920160  2655A      3.924039  
    2656A      3.925962  2657A      3.930388  2658A      3.931669  
    2659A      3.934263  2660A      3.935253  2661A      3.938393  
    2662A      3.938611  2663A      3.939700  2664A      3.942341  
    2665A      3.946608  2666A      3.948872  2667A      3.949689  
    2668A      3.953232  2669A      3.953516  2670A      3.955801  
    2671A      3.960083  2672A      3.961619  2673A      3.961750  
    2674A      3.964857  2675A      3.965690  2676A      3.968954  
    2677A      3.972111  2678A      3.976672  2679A      3.980095  
    2680A      3.981324  2681A      3.983804  2682A      3.988764  
    2683A      3.989891  2684A      3.993637  2685A      3.994487  
    2686A      4.000423  2687A      4.001670  2688A      4.004160  
    2689A      4.005112  2690A      4.006050  2691A      4.008981  
    2692A      4.010267  2693A      4.013991  2694A      4.016632  
    2695A      4.017943  2696A      4.019475  2697A      4.021231  
    2698A      4.025340  2699A      4.025539  2700A      4.028472  
    2701A      4.033305  2702A      4.034033  2703A      4.036064  
    2704A      4.037573  2705A      4.039384  2706A      4.041466  
    2707A      4.041851  2708A      4.042474  2709A      4.049364  
    2710A      4.049789  2711A      4.051521  2712A      4.053589  
    2713A      4.055698  2714A      4.058331  2715A      4.059625  
    2716A      4.060248  2717A      4.064204  2718A      4.067751  
    2719A      4.069255  2720A      4.070961  2721A      4.074904  
    2722A      4.079881  2723A      4.085068  2724A      4.086582  
    2725A      4.088529  2726A      4.089777  2727A      4.091630  
    2728A      4.095121  2729A      4.098973  2730A      4.099996  
    2731A      4.101839  2732A      4.102837  2733A      4.104239  
    2734A      4.108584  2735A      4.110254  2736A      4.111436  
    2737A      4.112391  2738A      4.112537  2739A      4.117280  
    2740A      4.120208  2741A      4.121466  2742A      4.123960  
    2743A      4.126238  2744A      4.127835  2745A      4.128737  
    2746A      4.129861  2747A      4.130465  2748A      4.132956  
    2749A      4.134366  2750A      4.136683  2751A      4.139405  
    2752A      4.141330  2753A      4.143825  2754A      4.144987  
    2755A      4.149456  2756A      4.150119  2757A      4.151865  
    2758A      4.155806  2759A      4.157256  2760A      4.159042  
    2761A      4.161284  2762A      4.164801  2763A      4.166123  
    2764A      4.170264  2765A      4.172439  2766A      4.175178  
    2767A      4.175394  2768A      4.178658  2769A      4.180360  
[...]
    4234A      9.403211  4235A      9.405101  4236A      9.406530  
    4237A      9.410055  4238A      9.411487  4239A      9.411786  
    4240A      9.422388  4241A      9.424965  4242A      9.430731  
    4243A      9.432397  4244A      9.434162  4245A      9.440854  
    4246A      9.441537  4247A      9.443606  4248A      9.447272  
    4249A      9.450255  4250A      9.451339  4251A      9.454353  
    4252A      9.458063  4253A      9.461250  4254A      9.467485  
    4255A      9.469508  4256A      9.473916  4257A      9.484834  
    4258A      9.490008  4259A      9.490261  4260A      9.493620  
    4261A      9.494867  4262A      9.501094  4263A      9.506919  
    4264A      9.508067  4265A      9.514024  4266A      9.516425  
    4267A      9.518610  4268A      9.523334  4269A      9.531255  
    4270A      9.535066  4271A      9.539311  4272A      9.545385  
    4273A      9.547959  4274A      9.550855  4275A      9.552901  
    4276A      9.558978  4277A      9.559527  4278A      9.560105  
    4279A      9.560939  4280A      9.567335  4281A      9.569297  
    4282A      9.578836  4283A      9.585302  4284A      9.593279  
    4285A      9.597039  4286A      9.599575  4287A      9.602352  
    4288A      9.603463  4289A      9.611867  4290A      9.620450  
    4291A      9.620836  4292A      9.623726  4293A      9.627258  
    4294A      9.629505  4295A      9.634621  4296A      9.638611  
    4297A      9.643195  4298A      9.647908  4299A      9.651999  
    4300A      9.655883  4301A      9.659844  4302A      9.663650  
    4303A      9.675722  4304A      9.676804  4305A      9.679662  
    4306A      9.684893  4307A      9.687712  4308A      9.694609  
    4309A      9.696644  4310A      9.701407  4311A      9.705999  
    4312A      9.710053  4313A      9.714741  4314A      9.723408  
    4315A      9.724770  4316A      9.726221  4317A      9.728266  
    4318A      9.731466  4319A      9.738709  4320A      9.739622  
    4321A      9.742302  4322A      9.745474  4323A      9.747604  
    4324A      9.754654  4325A      9.755679  4326A      9.764350  
    4327A      9.766473  4328A      9.767512  4329A      9.769471  
    4330A      9.777926  4331A      9.785655  4332A      9.785783  
    4333A      9.792489  4334A      9.794103  4335A      9.795608  
    4336A      9.796877  4337A      9.798689  4338A      9.803084  
    4339A      9.812110  4340A      9.813059  4341A      9.814204  
    4342A      9.818629  4343A      9.820666  4344A      9.821192  
    4345A      9.827764  4346A      9.829091  4347A      9.831261  
    4348A      9.833411  4349A      9.844545  4350A      9.845369  
    4351A      9.852260  4352A      9.854780  4353A      9.856445  
    4354A      9.860929  4355A      9.866194  4356A      9.867415  
    4357A      9.868749  4358A      9.872879  4359A      9.875345  
    4360A      9.878312  4361A      9.880246  4362A      9.888814  
    4363A      9.895840  4364A      9.899776  4365A      9.902825  
    4366A      9.905684  4367A      9.907658  4368A      9.909077  
    4369A      9.909330  4370A      9.916900  4371A      9.918445  
    4372A      9.923180  4373A      9.924609  4374A      9.926509  
    4375A      9.927950  4376A      9.935461  4377A      9.940263  
    4378A      9.940814  4379A      9.943806  4380A      9.947386  
    4381A      9.953079  4382A      9.960517  4383A      9.963454  
    4384A      9.965936  4385A      9.971893  4386A      9.975336  
    4387A      9.978397  4388A      9.994993  4389A     10.005305  
    4390A     10.007597  4391A     10.008439  4392A     10.013381  
    4393A     10.028769  4394A     10.035773  4395A     10.038912  
    4396A     10.040870  4397A     10.045157  4398A     10.048271  
    4399A     10.050907  4400A     10.051175  4401A     10.054035  
    4402A     10.063522  4403A     10.065801  4404A     10.069283  
    4405A     10.074780  4406A     10.076219  4407A     10.082603  
    4408A     10.092138  4409A     10.097120  4410A     10.098774  
    4411A     10.104556  4412A     10.111469  4413A     10.116603  
    4414A     10.118464  4415A     10.120689  4416A     10.133710  
    4417A     10.136937  4418A     10.138799  4419A     10.141068  
    4420A     10.149159  4421A     10.152461  4422A     10.152791  
    4423A     10.155417  4424A     10.162313  4425A     10.163290  
    4426A     10.166734  4427A     10.170378  4428A     10.171295  
    4429A     10.175006  4430A     10.176686  4431A     10.177924  
    4432A     10.182693  4433A     10.184968  4434A     10.190355  
    4435A     10.200153  4436A     10.202948  4437A     10.203296  
    4438A     10.205983  4439A     10.211983  4440A     10.214754  
    4441A     10.216863  4442A     10.223566  4443A     10.224189  
    4444A     10.227911  4445A     10.229941  4446A     10.236368  
    4447A     10.238490  4448A     10.245478  4449A     10.252271  
    4450A     10.256092  4451A     10.265943  4452A     10.269137  
    4453A     10.269848  4454A     10.272838  4455A     10.273764  
    4456A     10.275456  4457A     10.284123  4458A     10.286233  
    4459A     10.291433  4460A     10.292785  4461A     10.298363  
    4462A     10.301174  4463A     10.301831  4464A     10.302022  
    4465A     10.302281  4466A     10.310007  4467A     10.314164  
    4468A     10.315562  4469A     10.318657  4470A     10.319108  
    4471A     10.332478  4472A     10.333097  4473A     10.340587  
    4474A     10.341718  4475A     10.342021  4476A     10.345945  
    4477A     10.350202  4478A     10.353211  4479A     10.360636  
    4480A     10.361641  4481A     10.368701  4482A     10.369071  
    4483A     10.372204  4484A     10.378301  4485A     10.380841  
    4486A     10.383059  4487A     10.386496  4488A     10.394576  
    4489A     10.400993  4490A     10.410502  4491A     10.418836  
    4492A     10.422197  4493A     10.422934  4494A     10.425517  
    4495A     10.429430  4496A     10.436953  4497A     10.441576  
    4498A     10.444612  4499A     10.448447  4500A     10.455299  
    4501A     10.456238  4502A     10.457004  4503A     10.461701  
    4504A     10.464727  4505A     10.467265  4506A     10.471628  
    4507A     10.475943  4508A     10.479102  4509A     10.482297  
    4510A     10.487722  4511A     10.494900  4512A     10.496556  
    4513A     10.504000  4514A     10.517172  4515A     10.520403  
    4516A     10.528286  4517A     10.538619  4518A     10.539823  
    4519A     10.546405  4520A     10.549703  4521A     10.557317  
    4522A     10.574915  4523A     10.588064  4524A     10.588596  
    4525A     10.589968  4526A     10.593854  4527A     10.603529  
    4528A     10.608212  4529A     10.608889  4530A     10.614368  
    4531A     10.624998  4532A     10.625613  4533A     10.641808  
    4534A     10.654066  4535A     10.655875  4536A     10.664401  
    4537A     10.676358  4538A     10.676564  4539A     10.677376  
    4540A     10.700495  4541A     10.705695  4542A     10.710103  
    4543A     10.713570  4544A     10.739833  4545A     10.740852  
    4546A     10.758072  4547A     10.761967  4548A     10.766053  
    4549A     10.766675  4550A     10.770329  4551A     10.784959  
    4552A     10.793153  4553A     10.798397  4554A     10.815628  
    4555A     10.820556  4556A     10.823103  4557A     10.825583  
    4558A     10.838453  4559A     10.840145  4560A     10.842222  
    4561A     10.846587  4562A     10.849992  4563A     10.854372  
    4564A     10.864417  4565A     10.876035  4566A     10.879253  
    4567A     10.880056  4568A     10.884634  4569A     10.887346  
    4570A     10.888267  4571A     10.896422  4572A     10.898346  
    4573A     10.902155  4574A     10.909970  4575A     10.913011  
    4576A     10.917473  4577A     10.920761  4578A     10.925326  
    4579A     10.936401  4580A     10.952848  4581A     10.955682  
    4582A     10.958292  4583A     10.963504  4584A     10.968429  
    4585A     10.983935  4586A     10.996048  4587A     10.996122  
    4588A     10.997067  4589A     11.006629  4590A     11.011093  
    4591A     11.011638  4592A     11.013471  4593A     11.018069  
    4594A     11.022441  4595A     11.030140  4596A     11.032336  
    4597A     11.040663  4598A     11.048308  4599A     11.052791  
    4600A     11.055676  4601A     11.060463  4602A     11.068753  
    4603A     11.069362  4604A     11.071830  4605A     11.077605  
    4606A     11.080263  4607A     11.083990  4608A     11.086088  
    4609A     11.095688  4610A     11.103983  4611A     11.112307  
    4612A     11.112357  4613A     11.112467  4614A     11.125058  
    4615A     11.128893  4616A     11.133942  4617A     11.137134  
    4618A     11.144553  4619A     11.151709  4620A     11.155257  
    4621A     11.155558  4622A     11.164550  4623A     11.166384  
    4624A     11.169643  4625A     11.173239  4626A     11.176167  
    4627A     11.177043  4628A     11.182647  4629A     11.184485  
    4630A     11.198996  4631A     11.199354  4632A     11.201769  
    4633A     11.213692  4634A     11.218845  4635A     11.219306  
    4636A     11.219651  4637A     11.223337  4638A     11.228795  
    4639A     11.234361  4640A     11.248346  4641A     11.250566  
    4642A     11.252235  4643A     11.255002  4644A     11.259448  
    4645A     11.262251  4646A     11.263736  4647A     11.273216  
    4648A     11.279201  4649A     11.283207  4650A     11.289447  
    4651A     11.296624  4652A     11.310783  4653A     11.320457  
    4654A     11.324475  4655A     11.326618  4656A     11.329046  
    4657A     11.331899  4658A     11.353884  4659A     11.358856  
    4660A     11.361022  4661A     11.367187  4662A     11.376634  
    4663A     11.377547  4664A     11.389387  4665A     11.396252  
    4666A     11.397032  4667A     11.403318  4668A     11.409000  
    4669A     11.411662  4670A     11.420591  4671A     11.425281  
    4672A     11.434480  4673A     11.439370  4674A     11.447572  
    4675A     11.450605  4676A     11.455002  4677A     11.457528  
    4678A     11.459252  4679A     11.466643  4680A     11.471158  
    4681A     11.471635  4682A     11.475302  4683A     11.500897  
    4684A     11.503019  4685A     11.504205  4686A     11.520282  
    4687A     11.527687  4688A     11.528358  4689A     11.529089  
    4690A     11.545046  4691A     11.547084  4692A     11.548029  
    4693A     11.550904  4694A     11.551866  4695A     11.571027  
    4696A     11.577154  4697A     11.583165  4698A     11.585541  
    4699A     11.598976  4700A     11.604327  4701A     11.607594  
    4702A     11.612048  4703A     11.616674  4704A     11.622909  
    4705A     11.628797  4706A     11.636712  4707A     11.645147  
    4708A     11.647326  4709A     11.655513  4710A     11.656113  
    4711A     11.658104  4712A     11.664445  4713A     11.674874  
    4714A     11.682573  4715A     11.684414  4716A     11.686988  
    4717A     11.692820  4718A     11.699816  4719A     11.712842  
    4720A     11.715296  4721A     11.716235  4722A     11.717553  
    4723A     11.722078  4724A     11.747512  4725A     11.752651  
    4726A     11.757721  4727A     11.765074  4728A     11.782080  
    4729A     11.786671  4730A     11.791826  4731A     11.793058  
    4732A     11.797180  4733A     11.801361  4734A     11.808831  
    4735A     11.819975  4736A     11.826485  4737A     11.849422  
    4738A     11.866195  4739A     11.875338  4740A     11.893384  
    4741A     11.903129  4742A     11.907175  4743A     11.917049  
    4744A     11.933551  4745A     11.934983  4746A     11.936476  
    4747A     11.940372  4748A     11.952347  4749A     11.954230  
    4750A     11.959495  4751A     11.960200  4752A     11.971362  
    4753A     11.976933  4754A     11.983442  4755A     11.990344  
    4756A     12.001908  4757A     12.011651  4758A     12.015444  
    4759A     12.025709  4760A     12.027997  4761A     12.035574  
    4762A     12.044741  4763A     12.044757  4764A     12.046204  
    4765A     12.074655  4766A     12.086434  4767A     12.102917  
    4768A     12.113981  4769A     12.123690  4770A     12.162216  
    4771A     12.167354  4772A     12.178184  4773A     12.178993  
    4774A     12.185382  4775A     12.186971  4776A     12.197228  
    4777A     12.199856  4778A     12.210060  4779A     12.228379  
    4780A     12.235518  4781A     12.237374  4782A     12.238993  
    4783A     12.247455  4784A     12.248510  4785A     12.254022  
    4786A     12.258806  4787A     12.268213  4788A     12.269420  
    4789A     12.273263  4790A     12.283183  4791A     12.287863  
    4792A     12.294979  4793A     12.297946  4794A     12.301002  
    4795A     12.317086  4796A     12.320690  4797A     12.320920  
    4798A     12.321887  4799A     12.337869  4800A     12.339138  
    4801A     12.350718  4802A     12.353412  4803A     12.354053  
    4804A     12.360865  4805A     12.364212  4806A     12.379727  
    4807A     12.387726  4808A     12.391995  4809A     12.400364  
    4810A     12.400913  4811A     12.412980  4812A     12.419940  
    4813A     12.422460  4814A     12.437734  4815A     12.447711  
    4816A     12.453443  4817A     12.476465  4818A     12.485108  
    4819A     12.505433  4820A     12.532490  4821A     12.554253  
    4822A     12.565439  4823A     12.593303  4824A     12.605211  
    4825A     12.608076  4826A     12.618021  4827A     12.628421  
    4828A     12.678483  4829A     12.684352  4830A     12.690229  
    4831A     12.738756  4832A     12.750163  4833A     12.751720  
    4834A     12.763085  4835A     12.776666  4836A     12.781603  
    4837A     12.797329  4838A     12.799936  4839A     12.807365  
    4840A     12.808750  4841A     12.819723  4842A     12.822820  
    4843A     12.833567  4844A     12.844907  4845A     12.853543  
    4846A     12.865533  4847A     12.867427  4848A     12.873412  
    4849A     12.885381  4850A     12.892812  4851A     12.921876  
    4852A     12.933444  4853A     12.954425  4854A     12.959471  
    4855A     12.973213  4856A     12.974001  4857A     12.979913  
    4858A     12.981747  4859A     12.995748  4860A     13.001099  
    4861A     13.003496  4862A     13.014279  4863A     13.016172  
    4864A     13.018701  4865A     13.039339  4866A     13.051951  
    4867A     13.054084  4868A     13.077992  4869A     13.081178  
    4870A     13.091228  4871A     13.093662  4872A     13.104033  
    4873A     13.108000  4874A     13.117775  4875A     13.131375  
    4876A     13.135075  4877A     13.135509  4878A     13.149380  
    4879A     13.165551  4880A     13.179057  4881A     13.187398  
    4882A     13.202308  4883A     13.207945  4884A     13.210473  
    4885A     13.244739  4886A     13.245509  4887A     13.261888  
    4888A     13.282677  4889A     13.284899  4890A     13.312265  
    4891A     13.320143  4892A     13.333937  4893A     13.353142  
    4894A     13.353422  4895A     13.353995  4896A     13.368036  
    4897A     13.377225  4898A     13.385695  4899A     13.394482  
    4900A     13.397113  4901A     13.400066  4902A     13.403676  
    4903A     13.419759  4904A     13.424124  4905A     13.433641  
    4906A     13.434360  4907A     13.441926  4908A     13.447657  
    4909A     13.451047  4910A     13.461941  4911A     13.462355  
    4912A     13.464923  4913A     13.471021  4914A     13.473791  
    4915A     13.479778  4916A     13.491814  4917A     13.512604  
    4918A     13.514008  4919A     13.517349  4920A     13.526747  
    4921A     13.541464  4922A     13.549355  4923A     13.555136  
    4924A     13.556508  4925A     13.558510  4926A     13.560327  
    4927A     13.588108  4928A     13.606216  4929A     13.608219  
    4930A     13.612416  4931A     13.623818  4932A     13.627431  
    4933A     13.661650  4934A     13.691885  4935A     13.697047  
    4936A     13.722888  4937A     13.743462  4938A     13.756580  
    4939A     13.763013  4940A     13.770724  4941A     13.775500  
    4942A     13.787869  4943A     13.814586  4944A     13.832190  
    4945A     13.868588  4946A     13.875674  4947A     13.889607  
    4948A     13.912117  4949A     13.917155  4950A     13.953076  
    4951A     13.966219  4952A     13.992203  4953A     14.050241  
    4954A     14.055946  4955A     14.060753  4956A     14.072742  
    4957A     14.073781  4958A     14.084635  4959A     14.121734  
    4960A     14.153229  4961A     14.156845  4962A     14.157700  
    4963A     14.196188  4964A     14.213257  4965A     14.272666  
    4966A     14.350939  4967A     14.390507  4968A     14.405263  
    4969A     14.524721  4970A     14.541470  4971A     14.541665  
    4972A     14.590397  4973A     14.629227  4974A     14.639673  
    4975A     14.652362  4976A     14.665383  4977A     14.669343  
    4978A     14.675449  4979A     14.675577  4980A     14.702271  
    4981A     14.707832  4982A     14.801373  4983A     14.878388  
    4984A     14.901558  4985A     14.919637  4986A     15.024623  
    4987A     15.054004  4988A     15.073334  4989A     15.082745  
    4990A     15.095352  4991A     15.128465  4992A     15.132972  
    4993A     15.173750  4994A     15.175131  4995A     15.182677  
    4996A     15.214382  4997A     15.218273  4998A     15.253909  
    4999A     15.288550  5000A     15.372507  5001A     15.386179  
    5002A     15.403754  5003A     15.418145  5004A     15.448928  
    5005A     15.450618  5006A     15.528495  5007A     15.561411  
    5008A     15.569778  5009A     15.597705  5010A     15.601549  
    5011A     17.405997  5012A     17.544228  5013A     17.691295  
    5014A     26.595558  5015A     26.792274  5016A     26.897617  
    5017A     26.990775  5018A     27.007485  5019A     27.029195  
    5020A     27.261164  5021A     27.419663  5022A     27.459051  
    5023A     27.695838  5024A     28.085259  5025A     28.100471  
    5026A     28.156904  5027A     28.406572  5028A     28.465618  
    5029A     28.481516  5030A     28.482177  5031A     28.517235  
    5032A     28.705756  5033A     28.978123  5034A     28.985941  
    5035A     35.495818  5036A     36.074476  5037A     36.100486  
    5038A     36.182399  5039A     36.368437  5040A     36.415682  
    5041A     43.966163  5042A     44.450134  5043A     44.456784  
    5044A     44.653262  5045A     44.664156  5046A     44.676809  
    5047A     44.719509  5048A     45.042352  5049A     45.121837  
    5050A     45.969292  5051A     46.326519  5052A     46.624549  

    Final Occupation by Irrep:
              A 
    DOCC [   153 ]

  Energy converged.

  @DF-RHF Final Energy: -2045.40542552871193

   => Energetics <=

    Nuclear Repulsion Energy =           3942.7865771560391295
    One-Electron Energy =              -10650.9371981792501174
    Two-Electron Energy =                4662.7451954944990575
    Total Energy =                      -2045.4054255287119304



Properties will be evaluated at   0.000000,   0.000000,   0.000000 Bohr

Properties computed using the SCF density matrix

  Nuclear Dipole Moment: (a.u.)
     X:   -20.8036      Y:   -23.1315      Z:   -12.8132

  Electronic Dipole Moment: (a.u.)
     X:    21.3467      Y:    21.9679      Z:    14.8937

  Dipole Moment: (a.u.)
     X:     0.5431      Y:    -1.1636      Z:     2.0805     Total:     2.4448

  Dipole Moment: (Debye)
     X:     1.3805      Y:    -2.9576      Z:     5.2880     Total:     6.2142


*** tstop() called on hex15 at Fri Mar  9 17:38:52 2018
Module time:
	user time   =   64618.73 seconds =    1076.98 minutes
	system time =    6833.75 seconds =     113.90 minutes
	total time  =      64176 seconds =    1069.60 minutes
Total time:
	user time   =   64618.73 seconds =    1076.98 minutes
	system time =    6833.75 seconds =     113.90 minutes
	total time  =      64176 seconds =    1069.60 minutes

*** Psi4 exiting successfully. Buy a developer a beer!
