
    -----------------------------------------------------------------------
          Psi4: An Open-Source Ab Initio Electronic Structure Package
                               Psi4 1.2a1.dev875 

                         Git: Rev {symm_JK} 0ea9481 dirty


    R. M. Parrish, L. A. Burns, D. G. A. Smith, A. C. Simmonett,
    A. E. DePrince III, E. G. Hohenstein, U. Bozkaya, A. Yu. Sokolov,
    R. Di Remigio, R. M. Richard, J. F. Gonthier, A. M. James,
    H. R. McAlexander, A. Kumar, M. Saitow, X. Wang, B. P. Pritchard,
    P. Verma, H. F. Schaefer III, K. Patkowski, R. A. King, E. F. Valeev,
    F. A. Evangelista, J. M. Turney, T. D. Crawford, and C. D. Sherrill,
    J. Chem. Theory Comput. 13(7) pp 3185--3197 (2017).
    (doi: 10.1021/acs.jctc.7b00174)

    -----------------------------------------------------------------------


    Psi4 started on: Thursday, 01 March 2018 06:45PM

    Process ID:  32264
    PSIDATADIR: /theoryfs2/ds/schieber/Gits/mspsi4/objdir3/stage/usr/local/psi4/share/psi4
    Memory:     500.0 MiB
    Threads:    6
    
  ==> Input File <==

--------------------------------------------------------------------------
memory 60 Gb

molecule protein_54 {
0 1
 N   18.626  30.444   6.627
 C   17.853  29.516   5.837
 C   16.945  30.292   4.886
 O   15.843  30.678   5.237
 C   17.047  28.642   6.811
 C   16.316  27.513   6.146
 O   16.236  27.458   4.905
 O   15.762  26.696   6.882
 N   17.407  27.054  -1.437
 C   17.227  26.751  -0.026
 C   18.555  26.446   0.653
 O   19.003  25.309   0.692
 C   16.258  25.572   0.084
 C   15.759  25.336   1.493
 O   16.399  25.780   2.453
 O   14.731  24.675   1.645
 N   19.106  26.199   3.688
 C   18.957  25.372   4.876
 C   18.845  23.903   4.520
 O   18.660  23.054   5.417
 N   20.536  20.559   2.918
 C   21.779  19.912   2.496
 C   21.693  19.374   1.107
 O   22.642  19.502   0.361
 C   22.169  18.827   3.447
 C   22.272  19.337   4.844
 O   22.714  20.482   5.029
 O   21.836  18.647   5.778
 H   18.180  30.990   7.295
 H   18.510  28.835   5.249
 H   16.336  29.276   7.377
 H   17.778  28.186   7.516
 H   15.845  26.702   7.843
 H   17.860  26.421  -2.023
 H   16.724  27.595   0.500
 H   16.724  24.663  -0.337
 H   15.363  25.845  -0.519
 H   16.737  25.171   3.109
 H   18.314  26.771   3.377
 H   18.015  25.631   5.391
 H   19.792  25.567   5.577
 H   19.976  20.073   3.597
 H   22.602  20.664   2.537
 H   23.175  18.459   3.144
 H   21.465  17.966   3.392
 H   21.492  17.752   5.634
 H   19.646  30.419   6.619
 H   17.295  30.415   3.850
 H   16.947  27.858  -1.864
 H   19.060  27.284   1.155
 H   20.034  26.347   3.290
 H   18.824  23.654   3.449
 H   20.197  21.395   2.443
 H   20.727  18.956   0.786
}

set {
basis aug-cc-pvtz
scf_type df
guess sad
DF_SCF_TYPE SYMM_JK
}

energy('HF')
--------------------------------------------------------------------------

  Memory set to  55.879 GiB by Python driver.

*** tstart() called on hex15
*** at Thu Mar  1 18:45:55 2018

   => Loading Basis Set <=

    Name: AUG-CC-PVTZ
    Role: ORBITAL
    Keyword: BASIS
    atoms 1, 9, 17, 21                                entry N          line   281 file /theoryfs2/ds/schieber/Gits/mspsi4/objdir3/stage/usr/local/psi4/share/psi4/basis/aug-cc-pvtz.gbs 
    atoms 2-3, 5-6, 10-11, 13-14, 18-19, 22-23, 25-26 entry C          line   235 file /theoryfs2/ds/schieber/Gits/mspsi4/objdir3/stage/usr/local/psi4/share/psi4/basis/aug-cc-pvtz.gbs 
    atoms 4, 7-8, 12, 15-16, 20, 24, 27-28            entry O          line   327 file /theoryfs2/ds/schieber/Gits/mspsi4/objdir3/stage/usr/local/psi4/share/psi4/basis/aug-cc-pvtz.gbs 
    atoms 29-54                                       entry H          line    36 file /theoryfs2/ds/schieber/Gits/mspsi4/objdir3/stage/usr/local/psi4/share/psi4/basis/aug-cc-pvtz.gbs 


         ---------------------------------------------------------
                                   SCF
            by Justin Turney, Rob Parrish, Andy Simmonett
                             and Daniel Smith
                              RHF Reference
                        6 Threads,  57220 MiB Core
         ---------------------------------------------------------

  ==> Geometry <==

    Molecular point group: c1
    Full point group: C1

    Geometry (in Angstrom), charge = 0, multiplicity = 1:

       Center              X                  Y                   Z               Mass       
    ------------   -----------------  -----------------  -----------------  -----------------
           N          0.020074539305     5.686424476598     3.129539240050    14.003074004780
           C         -0.752925460695     4.758424476598     2.339539240050    12.000000000000
           C         -1.660925460695     5.534424476598     1.388539240050    12.000000000000
           O         -2.762925460695     5.920424476598     1.739539240050    15.994914619560
           C         -1.558925460695     3.884424476598     3.313539240050    12.000000000000
           C         -2.289925460695     2.755424476598     2.648539240050    12.000000000000
           O         -2.369925460695     2.700424476598     1.407539240050    15.994914619560
           O         -2.843925460695     1.938424476598     3.384539240050    15.994914619560
           N         -1.198925460695     2.296424476598    -4.934460759950    14.003074004780
           C         -1.378925460695     1.993424476598    -3.523460759950    12.000000000000
           C         -0.050925460695     1.688424476598    -2.844460759950    12.000000000000
           O          0.397074539305     0.551424476598    -2.805460759950    15.994914619560
           C         -2.347925460695     0.814424476598    -3.413460759950    12.000000000000
           C         -2.846925460695     0.578424476598    -2.004460759950    12.000000000000
           O         -2.206925460695     1.022424476598    -1.044460759950    15.994914619560
           O         -3.874925460695    -0.082575523402    -1.852460759950    15.994914619560
           N          0.500074539305     1.441424476598     0.190539240050    14.003074004780
           C          0.351074539305     0.614424476598     1.378539240050    12.000000000000
           C          0.239074539305    -0.854575523402     1.022539240050    12.000000000000
           O          0.054074539305    -1.703575523402     1.919539240050    15.994914619560
           N          1.930074539305    -4.198575523402    -0.579460759950    14.003074004780
           C          3.173074539305    -4.845575523402    -1.001460759950    12.000000000000
           C          3.087074539305    -5.383575523402    -2.390460759950    12.000000000000
           O          4.036074539305    -5.255575523402    -3.136460759950    15.994914619560
           C          3.563074539305    -5.930575523402    -0.050460759950    12.000000000000
           C          3.666074539305    -5.420575523402     1.346539240050    12.000000000000
           O          4.108074539305    -4.275575523402     1.531539240050    15.994914619560
           O          3.230074539305    -6.110575523402     2.280539240050    15.994914619560
           H         -0.425925460695     6.232424476598     3.797539240050     1.007825032070
           H         -0.095925460695     4.077424476598     1.751539240050     1.007825032070
           H         -2.269925460695     4.518424476598     3.879539240050     1.007825032070
           H         -0.827925460695     3.428424476598     4.018539240050     1.007825032070
           H         -2.760925460695     1.944424476598     4.345539240050     1.007825032070
           H         -0.745925460695     1.663424476598    -5.520460759950     1.007825032070
           H         -1.881925460695     2.837424476598    -2.997460759950     1.007825032070
           H         -1.881925460695    -0.094575523402    -3.834460759950     1.007825032070
           H         -3.242925460695     1.087424476598    -4.016460759950     1.007825032070
           H         -1.868925460695     0.413424476598    -0.388460759950     1.007825032070
           H         -0.291925460695     2.013424476598    -0.120460759950     1.007825032070
           H         -0.590925460695     0.873424476598     1.893539240050     1.007825032070
           H          1.186074539305     0.809424476598     2.079539240050     1.007825032070
           H          1.370074539305    -4.684575523402     0.099539240050     1.007825032070
           H          3.996074539305    -4.093575523402    -0.960460759950     1.007825032070
           H          4.569074539305    -6.298575523402    -0.353460759950     1.007825032070
           H          2.859074539305    -6.791575523402    -0.105460759950     1.007825032070
           H          2.886074539305    -7.005575523402     2.136539240050     1.007825032070
           H          1.040074539305     5.661424476598     3.121539240050     1.007825032070
           H         -1.310925460695     5.657424476598     0.352539240050     1.007825032070
           H         -1.658925460695     3.100424476598    -5.361460759950     1.007825032070
           H          0.454074539305     2.526424476598    -2.342460759950     1.007825032070
           H          1.428074539305     1.589424476598    -0.207460759950     1.007825032070
           H          0.218074539305    -1.103575523402    -0.048460759950     1.007825032070
           H          1.591074539305    -3.362575523402    -1.054460759950     1.007825032070
           H          2.121074539305    -5.801575523402    -2.711460759950     1.007825032070

  Running in c1 symmetry.

  Rotational constants: A =      0.00569  B =      0.00205  C =      0.00170 [cm^-1]
  Rotational constants: A =    170.63320  B =     61.47394  C =     50.92296 [MHz]
  Nuclear repulsion = 2605.305023422821705

  Charge       = 0
  Multiplicity = 1
  Electrons    = 218
  Nalpha       = 109
  Nbeta        = 109

  ==> Algorithm <==

  SCF Algorithm Type is DF.
  DIIS enabled.
  MOM disabled.
  Fractional occupation disabled.
  Guess Type is SAD.
  Energy threshold   = 1.00e-06
  Density threshold  = 1.00e-06
  Integral threshold = 0.00e+00

  ==> Primary Basis <==

  Basis Set: AUG-CC-PVTZ
    Blend: AUG-CC-PVTZ
    Number of shells: 626
    Number of basis function: 1886
    Number of Cartesian functions: 2190
    Spherical Harmonics?: true
    Max angular momentum: 3

   => Loading Basis Set <=

    Name: (AUG-CC-PVTZ AUX)
    Role: JKFIT
    Keyword: DF_BASIS_SCF
    atoms 1, 9, 17, 21                                entry N          line   224 file /theoryfs2/ds/schieber/Gits/mspsi4/objdir3/stage/usr/local/psi4/share/psi4/basis/aug-cc-pvtz-jkfit.gbs 
    atoms 2-3, 5-6, 10-11, 13-14, 18-19, 22-23, 25-26 entry C          line   162 file /theoryfs2/ds/schieber/Gits/mspsi4/objdir3/stage/usr/local/psi4/share/psi4/basis/aug-cc-pvtz-jkfit.gbs 
    atoms 4, 7-8, 12, 15-16, 20, 24, 27-28            entry O          line   286 file /theoryfs2/ds/schieber/Gits/mspsi4/objdir3/stage/usr/local/psi4/share/psi4/basis/aug-cc-pvtz-jkfit.gbs 
    atoms 29-54                                       entry H          line    70 file /theoryfs2/ds/schieber/Gits/mspsi4/objdir3/stage/usr/local/psi4/share/psi4/basis/aug-cc-pvtz-jkfit.gbs 

  ==> Pre-Iterations <==

   -------------------------------------------------------
    Irrep   Nso     Nmo     Nalpha   Nbeta   Ndocc  Nsocc
   -------------------------------------------------------
     A       1886    1886       0       0       0       0
   -------------------------------------------------------
    Total    1886    1886     109     109     109       0
   -------------------------------------------------------

  ==> Integral Setup <==


    ==> DF_Helper memory announcement <==
        Turning off in-core AOs.  DF_Helper needs at least (91.3547GB), but it only got (45GB)

    ==> DF_Helper <==
      nao           = 1886
      naux          = 4108
      Scwarz cutoff = 1.000000E-12
      mem (doubles) = 5625000000
      nthreads      = 6
      Algorithm     = STORE
      AO_core?      = 0
      MO_core?      = 0
      hold metric   = 0
      metric power  = -5.000000E-01
  Fitting condition = 1.000000E-12
  Mask sparsity (%) = (38.283597)


  Minimum eigenvalue in the overlap matrix is 1.6760231921E-06.
  Using Symmetric Orthogonalization.

  SCF Guess: Superposition of Atomic Densities via on-the-fly atomic UHF.

  ==> Iterations <==

                           Total Energy        Delta E     RMS |[F,P]|

   @DF-RHF iter   0: -1523.05551639947407   -1.52306e+03   1.30693e-02 
   @DF-RHF iter   1: -1511.14197928229851    1.19135e+01   1.74576e-03 
   @DF-RHF iter   2: -1511.76142306124393   -6.19444e-01   1.28836e-03 DIIS
   @DF-RHF iter   3: -1512.12031800539626   -3.58895e-01   2.42542e-04 DIIS
   @DF-RHF iter   4: -1512.14938928861966   -2.90713e-02   8.26926e-05 DIIS
   @DF-RHF iter   5: -1512.15373217804427   -4.34289e-03   3.69388e-05 DIIS
   @DF-RHF iter   6: -1512.15494544839567   -1.21327e-03   1.82182e-05 DIIS
   @DF-RHF iter   7: -1512.15537629304595   -4.30845e-04   8.94497e-06 DIIS
   @DF-RHF iter   8: -1512.15548985272858   -1.13560e-04   4.29970e-06 DIIS
   @DF-RHF iter   9: -1512.15551848037603   -2.86276e-05   1.81789e-06 DIIS
   @DF-RHF iter  10: -1512.15552369571628   -5.21534e-06   7.74877e-07 DIIS
   @DF-RHF iter  11: -1512.15552455586658   -8.60150e-07   2.99675e-07 DIIS

  ==> Post-Iterations <==

    Orbital Energies (a.u.)
    -----------------------

    Doubly Occupied:                                                      

       1A    -20.648130     2A    -20.638684     3A    -20.606534  
       4A    -20.571503     5A    -20.563842     6A    -20.561395  
       7A    -20.560820     8A    -20.542983     9A    -20.522758  
      10A    -20.519660    11A    -15.561872    12A    -15.555855  
      13A    -15.551287    14A    -15.545887    15A    -11.399140  
      16A    -11.384404    17A    -11.369374    18A    -11.347270  
      19A    -11.340262    20A    -11.338202    21A    -11.328315  
      22A    -11.298921    23A    -11.293138    24A    -11.283349  
      25A    -11.277619    26A    -11.266925    27A    -11.266863  
      28A    -11.241301    29A     -1.530529    30A     -1.514390  
      31A     -1.502205    32A     -1.399983    33A     -1.394372  
      34A     -1.393916    35A     -1.369943    36A     -1.360054  
      37A     -1.341632    38A     -1.335956    39A     -1.216320  
      40A     -1.205072    41A     -1.195051    42A     -1.187099  
      43A     -1.057814    44A     -1.056947    45A     -1.046145  
      46A     -0.966465    47A     -0.952180    48A     -0.941629  
      49A     -0.939749    50A     -0.908876    51A     -0.892008  
      52A     -0.877684    53A     -0.811779    54A     -0.805005  
      55A     -0.799999    56A     -0.797876    57A     -0.749833  
      58A     -0.734918    59A     -0.734379    60A     -0.720750  
      61A     -0.713278    62A     -0.707967    63A     -0.697699  
      64A     -0.695692    65A     -0.690396    66A     -0.687625  
      67A     -0.680842    68A     -0.668185    69A     -0.666923  
      70A     -0.664280    71A     -0.660996    72A     -0.659345  
      73A     -0.656185    74A     -0.645693    75A     -0.635848  
      76A     -0.633173    77A     -0.632245    78A     -0.631096  
      79A     -0.624892    80A     -0.611363    81A     -0.591953  
      82A     -0.578987    83A     -0.575441    84A     -0.568465  
      85A     -0.564902    86A     -0.561088    87A     -0.551230  
      88A     -0.534609    89A     -0.533619    90A     -0.532629  
      91A     -0.523390    92A     -0.517529    93A     -0.508851  
      94A     -0.502426    95A     -0.489823    96A     -0.476373  
      97A     -0.464440    98A     -0.460694    99A     -0.459189  
     100A     -0.450722   101A     -0.446676   102A     -0.445145  
     103A     -0.441973   104A     -0.437654   105A     -0.433987  
     106A     -0.388209   107A     -0.383714   108A     -0.379812  
     109A     -0.377554  

    Virtual:                                                              

     110A      0.013161   111A      0.017154   112A      0.019053  
     113A      0.025312   114A      0.032733   115A      0.034288  
     116A      0.038111   117A      0.041109   118A      0.044152  
     119A      0.047514   120A      0.049791   121A      0.050198  
     122A      0.056941   123A      0.059844   124A      0.059967  
     125A      0.063268   126A      0.065944   127A      0.069638  
     128A      0.072028   129A      0.076076   130A      0.080238  
     131A      0.081558   132A      0.084511   133A      0.087722  
     134A      0.089397   135A      0.091055   136A      0.092746  
     137A      0.095946   138A      0.096586   139A      0.098318  
     140A      0.100761   141A      0.103308   142A      0.104745  
     143A      0.107537   144A      0.109449   145A      0.112622  
     146A      0.115060   147A      0.117474   148A      0.120341  
     149A      0.121618   150A      0.122132   151A      0.124583  
     152A      0.126389   153A      0.127669   154A      0.129491  
     155A      0.132297   156A      0.133472   157A      0.135545  
     158A      0.137165   159A      0.137555   160A      0.141017  
     161A      0.141982   162A      0.144486   163A      0.145090  
     164A      0.146338   165A      0.147735   166A      0.149599  
     167A      0.151540   168A      0.152847   169A      0.155265  
     170A      0.157532   171A      0.158519   172A      0.161146  
     173A      0.162027   174A      0.165235   175A      0.166034  
     176A      0.168228   177A      0.172712   178A      0.174710  
     179A      0.176539   180A      0.176669   181A      0.178689  
     182A      0.180382   183A      0.183715   184A      0.184523  
     185A      0.187885   186A      0.189644   187A      0.191296  
     188A      0.192817   189A      0.196006   190A      0.199399  
     191A      0.201365   192A      0.202447   193A      0.204650  
     194A      0.206804   195A      0.210742   196A      0.213406  
     197A      0.216723   198A      0.217864   199A      0.219012  
     200A      0.222676   201A      0.225500   202A      0.228134  
     203A      0.230336   204A      0.232096   205A      0.233497  
     206A      0.234766   207A      0.240318   208A      0.242590  
     209A      0.243503   210A      0.245602   211A      0.246824  
     212A      0.250355   213A      0.251979   214A      0.253759  
     215A      0.256981   216A      0.259495   217A      0.262359  
     218A      0.263951   219A      0.266530   220A      0.268307  
     221A      0.270115   222A      0.271306   223A      0.272674  
     224A      0.274400   225A      0.277205   226A      0.280365  
     227A      0.283619   228A      0.286784   229A      0.288554  
     230A      0.289189   231A      0.290618   232A      0.294439  
     233A      0.296545   234A      0.299082   235A      0.299749  
     236A      0.302177   237A      0.302888   238A      0.304575  
     239A      0.305549   240A      0.306644   241A      0.308958  
     242A      0.310738   243A      0.312720   244A      0.315944  
     245A      0.316483   246A      0.319688   247A      0.320604  
     248A      0.321980   249A      0.322798   250A      0.324930  
     251A      0.326696   252A      0.326929   253A      0.329762  
     254A      0.331108   255A      0.335114   256A      0.336708  
     257A      0.338716   258A      0.340400   259A      0.343269  
     260A      0.345197   261A      0.348050   262A      0.349289  
     263A      0.351148   264A      0.353215   265A      0.355610  
     266A      0.358087   267A      0.359456   268A      0.360653  
     269A      0.362283   270A      0.363481   271A      0.366019  
     272A      0.366972   273A      0.370769   274A      0.372807  
     275A      0.373941   276A      0.375931   277A      0.377627  
     278A      0.379193   279A      0.380710   280A      0.382286  
     281A      0.383645   282A      0.385972   283A      0.387918  
     284A      0.390529   285A      0.392241   286A      0.394338  
     287A      0.398299   288A      0.400937   289A      0.402657  
     290A      0.404059   291A      0.405222   292A      0.408628  
     293A      0.411609   294A      0.413046   295A      0.413531  
     296A      0.416669   297A      0.419639   298A      0.421987  
     299A      0.423320   300A      0.425082   301A      0.426446  
     302A      0.426723   303A      0.429147   304A      0.429996  
     305A      0.431791   306A      0.432839   307A      0.434847  
     308A      0.437434   309A      0.439080   310A      0.440916  
     311A      0.443387   312A      0.444846   313A      0.446022  
     314A      0.449810   315A      0.451543   316A      0.454824  
     317A      0.457490   318A      0.458629   319A      0.460551  
     320A      0.462509   321A      0.463632   322A      0.466625  
     323A      0.467556   324A      0.471278   325A      0.473018  
     326A      0.474758   327A      0.476791   328A      0.480707  
     329A      0.482774   330A      0.485700   331A      0.487261  
     332A      0.489396   333A      0.490938   334A      0.494687  
     335A      0.496564   336A      0.497358   337A      0.500218  
     338A      0.502029   339A      0.504177   340A      0.506190  
     341A      0.507349   342A      0.509317   343A      0.512137  
     344A      0.514427   345A      0.515972   346A      0.517217  
     347A      0.518803   348A      0.520182   349A      0.522907  
     350A      0.523524   351A      0.525696   352A      0.529432  
     353A      0.530375   354A      0.533614   355A      0.533861  
     356A      0.537299   357A      0.540307   358A      0.541756  
     359A      0.542724   360A      0.544717   361A      0.549478  
     362A      0.549956   363A      0.552115   364A      0.554370  
     365A      0.556520   366A      0.559322   367A      0.561737  
     368A      0.562074   369A      0.565221   370A      0.567810  
     371A      0.568979   372A      0.571667   373A      0.573348  
     374A      0.575894   375A      0.578847   376A      0.580673  
     377A      0.581804   378A      0.583039   379A      0.586429  
     380A      0.587449   381A      0.589653   382A      0.591878  
     383A      0.594136   384A      0.597366   385A      0.598778  
     386A      0.602404   387A      0.603453   388A      0.604918  
     389A      0.606010   390A      0.609738   391A      0.612578  
     392A      0.617137   393A      0.617869   394A      0.619548  
     395A      0.620920   396A      0.622879   397A      0.625908  
     398A      0.629500   399A      0.632428   400A      0.635237  
     401A      0.636354   402A      0.639235   403A      0.639385  
     404A      0.641082   405A      0.643907   406A      0.646126  
     407A      0.648746   408A      0.649962   409A      0.652378  
     410A      0.656643   411A      0.658288   412A      0.659982  
     413A      0.660318   414A      0.662966   415A      0.666699  
     416A      0.669485   417A      0.671695   418A      0.673567  
     419A      0.675031   420A      0.676249   421A      0.677609  
     422A      0.682140   423A      0.682306   424A      0.687210  
     425A      0.688725   426A      0.691127   427A      0.692210  
     428A      0.694919   429A      0.697829   430A      0.701149  
     431A      0.702963   432A      0.705010   433A      0.709622  
     434A      0.711166   435A      0.714545   436A      0.715055  
     437A      0.720854   438A      0.723022   439A      0.723240  
     440A      0.727655   441A      0.728762   442A      0.733688  
     443A      0.735812   444A      0.736997   445A      0.740233  
     446A      0.742050   447A      0.744272   448A      0.748217  
     449A      0.752280   450A      0.753310   451A      0.756804  
     452A      0.758007   453A      0.763887   454A      0.765591  
     455A      0.767467   456A      0.770322   457A      0.773833  
     458A      0.776195   459A      0.779605   460A      0.780895  
     461A      0.784829   462A      0.786533   463A      0.789277  
     464A      0.791720   465A      0.793878   466A      0.797202  
     467A      0.799690   468A      0.803519   469A      0.804882  
     470A      0.807696   471A      0.811557   472A      0.812691  
     473A      0.812887   474A      0.816108   475A      0.819291  
     476A      0.820348   477A      0.826435   478A      0.827404  
     479A      0.828376   480A      0.830762   481A      0.832179  
     482A      0.836872   483A      0.841678   484A      0.845283  
     485A      0.846772   486A      0.849128   487A      0.851798  
     488A      0.853843   489A      0.857024   490A      0.860158  
     491A      0.861884   492A      0.865205   493A      0.866703  
     494A      0.868483   495A      0.869919   496A      0.870450  
     497A      0.875665   498A      0.880577   499A      0.883498  
     500A      0.886253   501A      0.889791   502A      0.893045  
     503A      0.896682   504A      0.898751   505A      0.901493  
     506A      0.905326   507A      0.906347   508A      0.908628  
     509A      0.911781   510A      0.913679   511A      0.917192  
     512A      0.918171   513A      0.920934   514A      0.923056  
     515A      0.924605   516A      0.930085   517A      0.932285  
     518A      0.933991   519A      0.935691   520A      0.937064  
     521A      0.939980   522A      0.940178   523A      0.941209  
     524A      0.945139   525A      0.947608   526A      0.950807  
     527A      0.951224   528A      0.956185   529A      0.958418  
     530A      0.961793   531A      0.963322   532A      0.966330  
     533A      0.966782   534A      0.969011   535A      0.971753  
     536A      0.972695   537A      0.976019   538A      0.977526  
     539A      0.980786   540A      0.982356   541A      0.986928  
     542A      0.988454   543A      0.990324   544A      0.991224  
     545A      0.995128   546A      0.996206   547A      0.996628  
     548A      1.000253   549A      1.004055   550A      1.006361  
     551A      1.007071   552A      1.009062   553A      1.009959  
     554A      1.011241   555A      1.017001   556A      1.019083  
     557A      1.019607   558A      1.023834   559A      1.024705  
     560A      1.026102   561A      1.027343   562A      1.032198  
     563A      1.033453   564A      1.035428   565A      1.036422  
     566A      1.038952   567A      1.041515   568A      1.045794  
     569A      1.046069   570A      1.049361   571A      1.050814  
     572A      1.053253   573A      1.053869   574A      1.057035  
     575A      1.059151   576A      1.063324   577A      1.064732  
     578A      1.067412   579A      1.069722   580A      1.072179  
     581A      1.075417   582A      1.077228   583A      1.080492  
     584A      1.081232   585A      1.082323   586A      1.083693  
     587A      1.087241   588A      1.089123   589A      1.089852  
     590A      1.095454   591A      1.096491   592A      1.097159  
     593A      1.100208   594A      1.106178   595A      1.106598  
     596A      1.109129   597A      1.110719   598A      1.114210  
     599A      1.116440   600A      1.117691   601A      1.122036  
     602A      1.124102   603A      1.125312   604A      1.129481  
     605A      1.131024   606A      1.132047   607A      1.135872  
     608A      1.136946   609A      1.141815   610A      1.142614  
     611A      1.144158   612A      1.146132   613A      1.148022  
     614A      1.149947   615A      1.155656   616A      1.158049  
     617A      1.159469   618A      1.160630   619A      1.161771  
     620A      1.163141   621A      1.164628   622A      1.168277  
     623A      1.171110   624A      1.172157   625A      1.175128  
     626A      1.180679   627A      1.181728   628A      1.182761  
     629A      1.183832   630A      1.189194   631A      1.191333  
     632A      1.193895   633A      1.196807   634A      1.198846  
     635A      1.201195   636A      1.204999   637A      1.207417  
     638A      1.209026   639A      1.210356   640A      1.212189  
     641A      1.212481   642A      1.215618   643A      1.220164  
     644A      1.221744   645A      1.224907   646A      1.227305  
     647A      1.228863   648A      1.230611   649A      1.233526  
     650A      1.236357   651A      1.240354   652A      1.241525  
     653A      1.243375   654A      1.246757   655A      1.250150  
     656A      1.252377   657A      1.255769   658A      1.256835  
     659A      1.260788   660A      1.265748   661A      1.267382  
     662A      1.269178   663A      1.272690   664A      1.273921  
     665A      1.278725   666A      1.283084   667A      1.283297  
     668A      1.285884   669A      1.286519   670A      1.291036  
     671A      1.294828   672A      1.295716   673A      1.301070  
     674A      1.304436   675A      1.306204   676A      1.308532  
     677A      1.309497   678A      1.314550   679A      1.315493  
     680A      1.320394   681A      1.320763   682A      1.323507  
     683A      1.328440   684A      1.333619   685A      1.336080  
     686A      1.336917   687A      1.342978   688A      1.344743  
     689A      1.347125   690A      1.347846   691A      1.350660  
     692A      1.352856   693A      1.358558   694A      1.363633  
     695A      1.365100   696A      1.367302   697A      1.369281  
     698A      1.374850   699A      1.376653   700A      1.377703  
     701A      1.382213   702A      1.384973   703A      1.387096  
     704A      1.390555   705A      1.393894   706A      1.394747  
     707A      1.399178   708A      1.401343   709A      1.403821  
     710A      1.407312   711A      1.408108   712A      1.412686  
     713A      1.413119   714A      1.414542   715A      1.418912  
     716A      1.422518   717A      1.423308   718A      1.429090  
     719A      1.432041   720A      1.432336   721A      1.437795  
     722A      1.439290   723A      1.441878   724A      1.443923  
     725A      1.444741   726A      1.448580   727A      1.452832  
     728A      1.453217   729A      1.459460   730A      1.460185  
     731A      1.467455   732A      1.468913   733A      1.469786  
     734A      1.474250   735A      1.479281   736A      1.482957  
     737A      1.487329   738A      1.488705   739A      1.492897  
     740A      1.493871   741A      1.495531   742A      1.497694  
     743A      1.500670   744A      1.505086   745A      1.509772  
     746A      1.511997   747A      1.512844   748A      1.516386  
     749A      1.517375   750A      1.521451   751A      1.525587  
     752A      1.528077   753A      1.531029   754A      1.533521  
     755A      1.535255   756A      1.535914   757A      1.540806  
     758A      1.542336   759A      1.545282   760A      1.547663  
     761A      1.549919   762A      1.554853   763A      1.555453  
     764A      1.558067   765A      1.562275   766A      1.564003  
     767A      1.564647   768A      1.567380   769A      1.569402  
     770A      1.570195   771A      1.577070   772A      1.578692  
     773A      1.581603   774A      1.584282   775A      1.587442  
     776A      1.589952   777A      1.592739   778A      1.593838  
     779A      1.597300   780A      1.598430   781A      1.602082  
     782A      1.603781   783A      1.608064   784A      1.612053  
     785A      1.614878   786A      1.616500   787A      1.618788  
     788A      1.622550   789A      1.625411   790A      1.628098  
     791A      1.630776   792A      1.636904   793A      1.638978  
     794A      1.643020   795A      1.645308   796A      1.647152  
     797A      1.651776   798A      1.652588   799A      1.653459  
     800A      1.657944   801A      1.662852   802A      1.663838  
     803A      1.666326   804A      1.672242   805A      1.678565  
     806A      1.680695   807A      1.686274   808A      1.687942  
     809A      1.690788   810A      1.694054   811A      1.696446  
     812A      1.697899   813A      1.702472   814A      1.704206  
     815A      1.706504   816A      1.711790   817A      1.715591  
     818A      1.717398   819A      1.719630   820A      1.722357  
     821A      1.727958   822A      1.728789   823A      1.731318  
     824A      1.735331   825A      1.738789   826A      1.740548  
     827A      1.743954   828A      1.746412   829A      1.751149  
     830A      1.753676   831A      1.758907   832A      1.760471  
     833A      1.764384   834A      1.767022   835A      1.769673  
     836A      1.774733   837A      1.775319   838A      1.777789  
     839A      1.781440   840A      1.785498   841A      1.787697  
     842A      1.790776   843A      1.795369   844A      1.796936  
     845A      1.799210   846A      1.802873   847A      1.804947  
     848A      1.807289   849A      1.807865   850A      1.812119  
     851A      1.817561   852A      1.819854   853A      1.827763  
     854A      1.829406   855A      1.834158   856A      1.836824  
     857A      1.839706   858A      1.842987   859A      1.845122  
     860A      1.846470   861A      1.849852   862A      1.852801  
     863A      1.857282   864A      1.858938   865A      1.862703  
     866A      1.867832   867A      1.869279   868A      1.871631  
     869A      1.876906   870A      1.881018   871A      1.883438  
     872A      1.884980   873A      1.889446   874A      1.893687  
     875A      1.895472   876A      1.898243   877A      1.899223  
     878A      1.902090   879A      1.905211   880A      1.912960  
     881A      1.914099   882A      1.918909   883A      1.921181  
     884A      1.924686   885A      1.928456   886A      1.932415  
     887A      1.934254   888A      1.937998   889A      1.942086  
     890A      1.946469   891A      1.948330   892A      1.949184  
     893A      1.956199   894A      1.956790   895A      1.962715  
     896A      1.967866   897A      1.970561   898A      1.974964  
     899A      1.976076   900A      1.978767   901A      1.981935  
     902A      1.983069   903A      1.986486   904A      1.988850  
     905A      1.996002   906A      2.000218   907A      2.001651  
     908A      2.004295   909A      2.012482   910A      2.017597  
     911A      2.020011   912A      2.025199   913A      2.026970  
     914A      2.032791   915A      2.033658   916A      2.036431  
     917A      2.042739   918A      2.045422   919A      2.050047  
     920A      2.053941   921A      2.058371   922A      2.062182  
     923A      2.064361   924A      2.065615   925A      2.067853  
     926A      2.072990   927A      2.074746   928A      2.077086  
     929A      2.084736   930A      2.085986   931A      2.088926  
     932A      2.099044   933A      2.100785   934A      2.104326  
     935A      2.110538   936A      2.116719   937A      2.121918  
     938A      2.125549   939A      2.128213   940A      2.131032  
     941A      2.135061   942A      2.141500   943A      2.144212  
     944A      2.144808   945A      2.149079   946A      2.156620  
     947A      2.159560   948A      2.166011   949A      2.170004  
     950A      2.173184   951A      2.176855   952A      2.181459  
     953A      2.185452   954A      2.188584   955A      2.191347  
     956A      2.195085   957A      2.201683   958A      2.205730  
     959A      2.211764   960A      2.215952   961A      2.220547  
     962A      2.224949   963A      2.227712   964A      2.235699  
     965A      2.237478   966A      2.240757   967A      2.247697  
     968A      2.248321   969A      2.253465   970A      2.256174  
     971A      2.258680   972A      2.261690   973A      2.266123  
     974A      2.275315   975A      2.278178   976A      2.281415  
     977A      2.282284   978A      2.288445   979A      2.295266  
     980A      2.302120   981A      2.306664   982A      2.308353  
     983A      2.312784   984A      2.317649   985A      2.318071  
     986A      2.321632   987A      2.326493   988A      2.331740  
     989A      2.334106   990A      2.340358   991A      2.348773  
     992A      2.351664   993A      2.357093   994A      2.358894  
     995A      2.362551   996A      2.364913   997A      2.365179  
     998A      2.377992   999A      2.383270  1000A      2.386800  
    1001A      2.392744  1002A      2.395019  1003A      2.399703  
    1004A      2.404505  1005A      2.409832  1006A      2.415932  
    1007A      2.419792  1008A      2.423668  1009A      2.429243  
    1010A      2.433107  1011A      2.435305  1012A      2.438523  
    1013A      2.440432  1014A      2.450571  1015A      2.453639  
    1016A      2.457633  1017A      2.463585  1018A      2.466453  
    1019A      2.468516  1020A      2.471404  1021A      2.472986  
    1022A      2.480766  1023A      2.488898  1024A      2.492661  
    1025A      2.495966  1026A      2.497846  1027A      2.503862  
    1028A      2.504492  1029A      2.511499  1030A      2.515148  
    1031A      2.520540  1032A      2.526263  1033A      2.527075  
    1034A      2.533281  1035A      2.536165  1036A      2.538289  
    1037A      2.541275  1038A      2.548247  1039A      2.552277  
    1040A      2.555746  1041A      2.559387  1042A      2.562964  
    1043A      2.564229  1044A      2.567296  1045A      2.571553  
    1046A      2.573042  1047A      2.578332  1048A      2.581596  
    1049A      2.587472  1050A      2.589297  1051A      2.594422  
    1052A      2.599068  1053A      2.604286  1054A      2.606536  
    1055A      2.609937  1056A      2.620103  1057A      2.621836  
    1058A      2.624676  1059A      2.625380  1060A      2.630114  
    1061A      2.633117  1062A      2.635794  1063A      2.642286  
    1064A      2.645695  1065A      2.649950  1066A      2.657427  
    1067A      2.659366  1068A      2.665844  1069A      2.668842  
    1070A      2.671179  1071A      2.675091  1072A      2.676290  
    1073A      2.691903  1074A      2.693932  1075A      2.695338  
    1076A      2.698221  1077A      2.703660  1078A      2.707056  
    1079A      2.711738  1080A      2.718974  1081A      2.720660  
    1082A      2.727481  1083A      2.730356  1084A      2.731322  
    1085A      2.735804  1086A      2.737254  1087A      2.744848  
    1088A      2.749086  1089A      2.753069  1090A      2.756763  
    1091A      2.762845  1092A      2.766007  1093A      2.769372  
    1094A      2.770324  1095A      2.776214  1096A      2.781739  
    1097A      2.786982  1098A      2.789540  1099A      2.794878  
    1100A      2.802100  1101A      2.807084  1102A      2.808714  
    1103A      2.814029  1104A      2.817356  1105A      2.822425  
    1106A      2.828229  1107A      2.830375  1108A      2.834475  
    1109A      2.838802  1110A      2.842850  1111A      2.845079  
    1112A      2.854520  1113A      2.859309  1114A      2.860890  
    1115A      2.866791  1116A      2.870018  1117A      2.871277  
    1118A      2.882296  1119A      2.886462  1120A      2.893131  
    1121A      2.902021  1122A      2.906197  1123A      2.908284  
    1124A      2.912306  1125A      2.916726  1126A      2.921652  
    1127A      2.922473  1128A      2.927187  1129A      2.928854  
    1130A      2.930706  1131A      2.938873  1132A      2.945830  
    1133A      2.947925  1134A      2.960091  1135A      2.962092  
    1136A      2.965683  1137A      2.972189  1138A      2.975852  
    1139A      2.980224  1140A      2.987243  1141A      2.989836  
    1142A      2.994052  1143A      3.002642  1144A      3.007257  
    1145A      3.014004  1146A      3.023122  1147A      3.029284  
    1148A      3.032106  1149A      3.033487  1150A      3.036750  
    1151A      3.038711  1152A      3.045648  1153A      3.049261  
    1154A      3.063809  1155A      3.068354  1156A      3.076187  
    1157A      3.082905  1158A      3.088324  1159A      3.091744  
    1160A      3.095789  1161A      3.098395  1162A      3.103576  
    1163A      3.111921  1164A      3.121580  1165A      3.125796  
    1166A      3.129359  1167A      3.136928  1168A      3.138736  
    1169A      3.143572  1170A      3.150040  1171A      3.156788  
    1172A      3.157710  1173A      3.171515  1174A      3.179939  
    1175A      3.188595  1176A      3.192497  1177A      3.199321  
    1178A      3.206477  1179A      3.222828  1180A      3.231194  
    1181A      3.240009  1182A      3.243638  1183A      3.247516  
    1184A      3.250609  1185A      3.265064  1186A      3.269458  
    1187A      3.285014  1188A      3.294392  1189A      3.296426  
    1190A      3.311573  1191A      3.330205  1192A      3.339536  
    1193A      3.346074  1194A      3.350221  1195A      3.357576  
    1196A      3.361819  1197A      3.370292  1198A      3.379972  
    1199A      3.389150  1200A      3.396115  1201A      3.405760  
    1202A      3.411761  1203A      3.421272  1204A      3.426737  
    1205A      3.442279  1206A      3.453292  1207A      3.457346  
    1208A      3.466537  1209A      3.474236  1210A      3.479639  
    1211A      3.484607  1212A      3.489765  1213A      3.492894  
    1214A      3.497579  1215A      3.500766  1216A      3.513004  
    1217A      3.519133  1218A      3.525978  1219A      3.530283  
    1220A      3.534496  1221A      3.537826  1222A      3.544897  
    1223A      3.553081  1224A      3.556868  1225A      3.567529  
    1226A      3.569605  1227A      3.578716  1228A      3.588710  
    1229A      3.598997  1230A      3.603174  1231A      3.614610  
    1232A      3.617481  1233A      3.628163  1234A      3.634134  
    1235A      3.636595  1236A      3.644043  1237A      3.652546  
    1238A      3.657015  1239A      3.662512  1240A      3.664440  
    1241A      3.667268  1242A      3.669035  1243A      3.671494  
    1244A      3.676016  1245A      3.688735  1246A      3.696431  
    1247A      3.700205  1248A      3.703243  1249A      3.713277  
    1250A      3.716080  1251A      3.723948  1252A      3.729476  
    1253A      3.732219  1254A      3.734816  1255A      3.742891  
    1256A      3.745101  1257A      3.751342  1258A      3.756494  
    1259A      3.762233  1260A      3.770670  1261A      3.776181  
    1262A      3.782282  1263A      3.793349  1264A      3.796096  
    1265A      3.800463  1266A      3.809340  1267A      3.813610  
    1268A      3.817250  1269A      3.822229  1270A      3.832481  
    1271A      3.841712  1272A      3.842640  1273A      3.847114  
    1274A      3.851486  1275A      3.857126  1276A      3.861542  
    1277A      3.867668  1278A      3.872871  1279A      3.876677  
    1280A      3.881532  1281A      3.883033  1282A      3.888147  
    1283A      3.892143  1284A      3.894614  1285A      3.895345  
    1286A      3.903471  1287A      3.909728  1288A      3.912923  
    1289A      3.922563  1290A      3.924867  1291A      3.929476  
    1292A      3.940677  1293A      3.946828  1294A      3.948976  
    1295A      3.958429  1296A      3.963366  1297A      3.970697  
    1298A      3.973772  1299A      3.980785  1300A      3.985758  
    1301A      3.988542  1302A      3.994761  1303A      3.999242  
    1304A      4.005621  1305A      4.007191  1306A      4.013869  
    1307A      4.018521  1308A      4.026303  1309A      4.027291  
    1310A      4.035860  1311A      4.041137  1312A      4.048660  
    1313A      4.051386  1314A      4.060197  1315A      4.061160  
    1316A      4.067015  1317A      4.069758  1318A      4.075060  
    1319A      4.079745  1320A      4.082823  1321A      4.084020  
    1322A      4.092181  1323A      4.093557  1324A      4.094944  
    1325A      4.098572  1326A      4.104988  1327A      4.108166  
    1328A      4.113568  1329A      4.118812  1330A      4.122191  
    1331A      4.129320  1332A      4.132598  1333A      4.134303  
    1334A      4.143736  1335A      4.149417  1336A      4.151718  
    1337A      4.156002  1338A      4.157767  1339A      4.161254  
    1340A      4.166949  1341A      4.170397  1342A      4.181794  
    1343A      4.183373  1344A      4.190402  1345A      4.194997  
    1346A      4.199289  1347A      4.202195  1348A      4.212115  
    1349A      4.213504  1350A      4.224154  1351A      4.229056  
    1352A      4.236881  1353A      4.238622  1354A      4.243373  
    1355A      4.250208  1356A      4.255708  1357A      4.257337  
    1358A      4.261082  1359A      4.264567  1360A      4.269575  
    1361A      4.271827  1362A      4.276673  1363A      4.279213  
    1364A      4.282833  1365A      4.291057  1366A      4.295479  
    1367A      4.298666  1368A      4.303767  1369A      4.310069  
    1370A      4.316611  1371A      4.318787  1372A      4.324335  
    1373A      4.326466  1374A      4.329966  1375A      4.335550  
    1376A      4.337393  1377A      4.338212  1378A      4.341056  
    1379A      4.343648  1380A      4.349949  1381A      4.351558  
    1382A      4.355551  1383A      4.359631  1384A      4.370275  
    1385A      4.372838  1386A      4.377822  1387A      4.384685  
    1388A      4.388371  1389A      4.394197  1390A      4.400744  
    1391A      4.402291  1392A      4.409090  1393A      4.410585  
    1394A      4.414572  1395A      4.417550  1396A      4.422749  
    1397A      4.428694  1398A      4.432800  1399A      4.436802  
    1400A      4.437612  1401A      4.445221  1402A      4.456835  
    1403A      4.459902  1404A      4.461896  1405A      4.468840  
    1406A      4.473686  1407A      4.480298  1408A      4.486209  
    1409A      4.488485  1410A      4.490060  1411A      4.497942  
    1412A      4.501554  1413A      4.503980  1414A      4.508598  
    1415A      4.511520  1416A      4.513393  1417A      4.519749  
    1418A      4.525461  1419A      4.527865  1420A      4.529098  
    1421A      4.536773  1422A      4.538442  1423A      4.542612  
    1424A      4.543268  1425A      4.547512  1426A      4.552932  
    1427A      4.562848  1428A      4.566590  1429A      4.575186  
    1430A      4.575306  1431A      4.586113  1432A      4.588095  
    1433A      4.591260  1434A      4.597453  1435A      4.601802  
    1436A      4.607987  1437A      4.612435  1438A      4.617503  
    1439A      4.625120  1440A      4.630951  1441A      4.632936  
    1442A      4.643557  1443A      4.655207  1444A      4.655899  
    1445A      4.664119  1446A      4.669929  1447A      4.673367  
    1448A      4.678785  1449A      4.686304  1450A      4.690987  
    1451A      4.695277  1452A      4.698366  1453A      4.707962  
    1454A      4.709672  1455A      4.717911  1456A      4.723832  
    1457A      4.725941  1458A      4.735356  1459A      4.739139  
    1460A      4.747552  1461A      4.750781  1462A      4.757582  
    1463A      4.764141  1464A      4.768870  1465A      4.773371  
    1466A      4.775255  1467A      4.776601  1468A      4.787521  
    1469A      4.794982  1470A      4.798171  1471A      4.800398  
    1472A      4.808923  1473A      4.815333  1474A      4.818853  
    1475A      4.820844  1476A      4.829806  1477A      4.832730  
    1478A      4.834519  1479A      4.842445  1480A      4.855276  
    1481A      4.860470  1482A      4.864180  1483A      4.869859  
    1484A      4.871413  1485A      4.875379  1486A      4.885531  
    1487A      4.889439  1488A      4.892574  1489A      4.897308  
    1490A      4.905847  1491A      4.908470  1492A      4.915901  
    1493A      4.925684  1494A      4.930375  1495A      4.931486  
    1496A      4.936212  1497A      4.943740  1498A      4.945218  
    1499A      4.950795  1500A      4.957386  1501A      4.961401  
    1502A      4.966774  1503A      4.972010  1504A      4.974079  
    1505A      4.978846  1506A      4.981477  1507A      4.984567  
    1508A      4.991973  1509A      4.998862  1510A      5.008043  
    1511A      5.009658  1512A      5.012047  1513A      5.019573  
    1514A      5.023317  1515A      5.030319  1516A      5.032031  
    1517A      5.036476  1518A      5.038613  1519A      5.047897  
    1520A      5.057411  1521A      5.062218  1522A      5.063909  
    1523A      5.071391  1524A      5.077950  1525A      5.083342  
    1526A      5.088994  1527A      5.096392  1528A      5.107555  
    1529A      5.110288  1530A      5.112510  1531A      5.119740  
    1532A      5.122586  1533A      5.129649  1534A      5.142537  
    1535A      5.147841  1536A      5.149104  1537A      5.155068  
    1538A      5.158844  1539A      5.168024  1540A      5.170566  
    1541A      5.175766  1542A      5.181422  1543A      5.193697  
    1544A      5.195608  1545A      5.206702  1546A      5.209801  
    1547A      5.212789  1548A      5.218473  1549A      5.222407  
    1550A      5.223700  1551A      5.228634  1552A      5.233788  
    1553A      5.239981  1554A      5.244314  1555A      5.255070  
    1556A      5.263390  1557A      5.271002  1558A      5.274438  
    1559A      5.281764  1560A      5.283094  1561A      5.285508  
    1562A      5.293079  1563A      5.304975  1564A      5.308820  
    1565A      5.311666  1566A      5.320382  1567A      5.325840  
    1568A      5.328778  1569A      5.336051  1570A      5.338613  
    1571A      5.340791  1572A      5.345698  1573A      5.356634  
    1574A      5.366199  1575A      5.367410  1576A      5.372672  
    1577A      5.375639  1578A      5.379557  1579A      5.399399  
    1580A      5.403571  1581A      5.410081  1582A      5.412559  
    1583A      5.421968  1584A      5.424395  1585A      5.427422  
    1586A      5.435093  1587A      5.445296  1588A      5.449717  
    1589A      5.454806  1590A      5.463022  1591A      5.469107  
    1592A      5.474747  1593A      5.484095  1594A      5.486598  
    1595A      5.490622  1596A      5.493298  1597A      5.501889  
    1598A      5.509719  1599A      5.528335  1600A      5.533042  
    1601A      5.536313  1602A      5.538899  1603A      5.547074  
    1604A      5.550671  1605A      5.555906  1606A      5.564316  
    1607A      5.569779  1608A      5.577243  1609A      5.583003  
    1610A      5.587679  1611A      5.590225  1612A      5.597031  
    1613A      5.609143  1614A      5.614333  1615A      5.620160  
    1616A      5.622757  1617A      5.629493  1618A      5.634431  
    1619A      5.647570  1620A      5.652368  1621A      5.656604  
    1622A      5.673123  1623A      5.679233  1624A      5.681199  
    1625A      5.691047  1626A      5.700204  1627A      5.713360  
    1628A      5.720277  1629A      5.723322  1630A      5.729408  
    1631A      5.733232  1632A      5.738072  1633A      5.756542  
    1634A      5.768468  1635A      5.777206  1636A      5.780069  
    1637A      5.783766  1638A      5.790354  1639A      5.812679  
    1640A      5.820181  1641A      5.828505  1642A      5.837723  
    1643A      5.861712  1644A      5.872201  1645A      5.876187  
    1646A      5.889405  1647A      5.896899  1648A      5.905425  
    1649A      5.921721  1650A      5.926721  1651A      5.928499  
    1652A      5.950392  1653A      5.967836  1654A      5.987979  
    1655A      6.016501  1656A      6.023962  1657A      6.029621  
    1658A      6.040944  1659A      6.052402  1660A      6.060880  
    1661A      6.065664  1662A      6.070194  1663A      6.087921  
    1664A      6.091509  1665A      6.097371  1666A      6.110416  
    1667A      6.112930  1668A      6.131946  1669A      6.138242  
    1670A      6.159458  1671A      6.164859  1672A      6.169823  
    1673A      6.181289  1674A      6.190547  1675A      6.201015  
    1676A      6.202958  1677A      6.228012  1678A      6.232799  
    1679A      6.251221  1680A      6.261533  1681A      6.272194  
    1682A      6.290589  1683A      6.296807  1684A      6.310930  
    1685A      6.321792  1686A      6.323491  1687A      6.340025  
    1688A      6.344604  1689A      6.361574  1690A      6.367983  
    1691A      6.374590  1692A      6.375538  1693A      6.382506  
    1694A      6.393296  1695A      6.407380  1696A      6.425253  
    1697A      6.441080  1698A      6.474823  1699A      6.510077  
    1700A      6.526061  1701A      6.543725  1702A      6.557974  
    1703A      6.560978  1704A      6.567677  1705A      6.579576  
    1706A      6.601869  1707A      6.613893  1708A      6.619592  
    1709A      6.625076  1710A      6.632901  1711A      6.647610  
    1712A      6.655679  1713A      6.665391  1714A      6.697898  
    1715A      6.710833  1716A      6.712221  1717A      6.720454  
    1718A      6.739616  1719A      6.746853  1720A      6.752713  
    1721A      6.767896  1722A      6.781114  1723A      6.798552  
    1724A      6.801853  1725A      6.807532  1726A      6.829902  
    1727A      6.834815  1728A      6.837308  1729A      6.861841  
    1730A      6.866546  1731A      6.872165  1732A      6.874374  
    1733A      6.876508  1734A      6.893426  1735A      6.914378  
    1736A      6.917582  1737A      6.926316  1738A      6.930043  
    1739A      6.955253  1740A      6.968419  1741A      6.974879  
    1742A      6.979417  1743A      6.993709  1744A      7.003301  
    1745A      7.004609  1746A      7.011277  1747A      7.014543  
    1748A      7.019692  1749A      7.029497  1750A      7.032948  
    1751A      7.044127  1752A      7.047862  1753A      7.062406  
    1754A      7.076952  1755A      7.077431  1756A      7.081211  
    1757A      7.084728  1758A      7.088921  1759A      7.101541  
    1760A      7.114436  1761A      7.116729  1762A      7.137146  
    1763A      7.153756  1764A      7.174553  1765A      7.176993  
    1766A      7.197510  1767A      7.208090  1768A      7.212003  
    1769A      7.218918  1770A      7.225387  1771A      7.233947  
    1772A      7.240810  1773A      7.245937  1774A      7.266559  
    1775A      7.305660  1776A      7.320376  1777A      7.325769  
    1778A      7.345055  1779A      7.347626  1780A      7.361307  
    1781A      7.373906  1782A      7.379217  1783A      7.383627  
    1784A      7.391878  1785A      7.394584  1786A      7.425395  
    1787A      7.425908  1788A      7.430916  1789A      7.432467  
    1790A      7.441645  1791A      7.444620  1792A      7.470146  
    1793A      7.477382  1794A      7.482922  1795A      7.485615  
    1796A      7.492775  1797A      7.499418  1798A      7.520341  
    1799A      7.536742  1800A      7.540247  1801A      7.548262  
    1802A      7.556165  1803A      7.570998  1804A      7.585361  
    1805A      7.591259  1806A      7.594310  1807A      7.604050  
    1808A      7.610656  1809A      7.616364  1810A      7.631353  
    1811A      7.640511  1812A      7.645945  1813A      7.665291  
    1814A      7.683816  1815A      7.689204  1816A      7.701267  
    1817A      7.702074  1818A      7.721758  1819A      7.723588  
    1820A      7.730103  1821A      7.732483  1822A      7.750388  
    1823A      7.768272  1824A      7.772552  1825A      7.780231  
    1826A      7.789703  1827A      7.791157  1828A      7.799352  
    1829A      7.806232  1830A      7.845886  1831A      7.869734  
    1832A      7.882630  1833A      7.891845  1834A      7.894863  
    1835A      7.928590  1836A      7.945228  1837A      7.948134  
    1838A      7.950661  1839A      7.963347  1840A      7.976875  
    1841A      7.987533  1842A      7.996665  1843A      7.998293  
    1844A      8.007601  1845A      8.016301  1846A      8.033511  
    1847A      8.042734  1848A      8.049641  1849A      8.061604  
    1850A      8.080464  1851A      8.204749  1852A      8.244083  
    1853A      8.378656  1854A      8.410531  1855A      8.427871  
    1856A      8.733186  1857A      8.779316  1858A      8.790444  
    1859A     15.060197  1860A     15.622556  1861A     15.675111  
    1862A     15.755861  1863A     15.990421  1864A     16.017264  
    1865A     16.098874  1866A     16.819895  1867A     17.113958  
    1868A     17.149213  1869A     17.233612  1870A     17.343334  
    1871A     17.501457  1872A     17.886955  1873A     18.403154  
    1874A     18.409616  1875A     18.592086  1876A     18.634335  
    1877A     18.671777  1878A     18.782086  1879A     18.857958  
    1880A     19.777364  1881A     19.828912  1882A     19.939811  
    1883A     20.007495  1884A     20.216769  1885A     21.440837  
    1886A     21.924282  

    Final Occupation by Irrep:
              A 
    DOCC [   109 ]

  Energy converged.

  @DF-RHF Final Energy: -1512.15552455586658

   => Energetics <=

    Nuclear Repulsion Energy =           2605.3050234228217050
    One-Electron Energy =               -7257.7784696700955465
    Two-Electron Energy =                3140.3179216914068093
    Total Energy =                      -1512.1555245558665774



Properties will be evaluated at   0.000000,   0.000000,   0.000000 Bohr

Properties computed using the SCF density matrix

  Nuclear Dipole Moment: (a.u.)
     X:     3.6080      Y:     8.5823      Z:    -2.3649

  Electronic Dipole Moment: (a.u.)
     X:    -2.9392      Y:    -7.9333      Z:     3.6149

  Dipole Moment: (a.u.)
     X:     0.6687      Y:     0.6490      Z:     1.2500     Total:     1.5591

  Dipole Moment: (Debye)
     X:     1.6997      Y:     1.6495      Z:     3.1772     Total:     3.9629


*** tstop() called on hex15 at Thu Mar  1 19:49:25 2018
Module time:
	user time   =    3923.29 seconds =      65.39 minutes
	system time =     774.49 seconds =      12.91 minutes
	total time  =       3810 seconds =      63.50 minutes
Total time:
	user time   =    3923.29 seconds =      65.39 minutes
	system time =     774.49 seconds =      12.91 minutes
	total time  =       3810 seconds =      63.50 minutes

*** Psi4 exiting successfully. Buy a developer a beer!
