
    -----------------------------------------------------------------------
          Psi4: An Open-Source Ab Initio Electronic Structure Package
                               Psi4 1.2a1.dev875 

                         Git: Rev {symm_JK} 0ea9481 dirty


    R. M. Parrish, L. A. Burns, D. G. A. Smith, A. C. Simmonett,
    A. E. DePrince III, E. G. Hohenstein, U. Bozkaya, A. Yu. Sokolov,
    R. Di Remigio, R. M. Richard, J. F. Gonthier, A. M. James,
    H. R. McAlexander, A. Kumar, M. Saitow, X. Wang, B. P. Pritchard,
    P. Verma, H. F. Schaefer III, K. Patkowski, R. A. King, E. F. Valeev,
    F. A. Evangelista, J. M. Turney, T. D. Crawford, and C. D. Sherrill,
    J. Chem. Theory Comput. 13(7) pp 3185--3197 (2017).
    (doi: 10.1021/acs.jctc.7b00174)

    -----------------------------------------------------------------------


    Psi4 started on: Tuesday, 06 March 2018 12:30AM

    Process ID:   8579
    PSIDATADIR: /theoryfs2/ds/schieber/Gits/mspsi4/objdir3/stage/usr/local/psi4/share/psi4
    Memory:     500.0 MiB
    Threads:    6
    
  ==> Input File <==

--------------------------------------------------------------------------
memory 60 Gb

molecule protein_54 {
0 1
 N   18.626  30.444   6.627
 C   17.853  29.516   5.837
 C   16.945  30.292   4.886
 O   15.843  30.678   5.237
 C   17.047  28.642   6.811
 C   16.316  27.513   6.146
 O   16.236  27.458   4.905
 O   15.762  26.696   6.882
 N   17.407  27.054  -1.437
 C   17.227  26.751  -0.026
 C   18.555  26.446   0.653
 O   19.003  25.309   0.692
 C   16.258  25.572   0.084
 C   15.759  25.336   1.493
 O   16.399  25.780   2.453
 O   14.731  24.675   1.645
 N   19.106  26.199   3.688
 C   18.957  25.372   4.876
 C   18.845  23.903   4.520
 O   18.660  23.054   5.417
 N   20.536  20.559   2.918
 C   21.779  19.912   2.496
 C   21.693  19.374   1.107
 O   22.642  19.502   0.361
 C   22.169  18.827   3.447
 C   22.272  19.337   4.844
 O   22.714  20.482   5.029
 O   21.836  18.647   5.778
 H   18.180  30.990   7.295
 H   18.510  28.835   5.249
 H   16.336  29.276   7.377
 H   17.778  28.186   7.516
 H   15.845  26.702   7.843
 H   17.860  26.421  -2.023
 H   16.724  27.595   0.500
 H   16.724  24.663  -0.337
 H   15.363  25.845  -0.519
 H   16.737  25.171   3.109
 H   18.314  26.771   3.377
 H   18.015  25.631   5.391
 H   19.792  25.567   5.577
 H   19.976  20.073   3.597
 H   22.602  20.664   2.537
 H   23.175  18.459   3.144
 H   21.465  17.966   3.392
 H   21.492  17.752   5.634
 H   19.646  30.419   6.619
 H   17.295  30.415   3.850
 H   16.947  27.858  -1.864
 H   19.060  27.284   1.155
 H   20.034  26.347   3.290
 H   18.824  23.654   3.449
 H   20.197  21.395   2.443
 H   20.727  18.956   0.786
}

set {
basis cc-pvqz
scf_type df
guess sad
DF_SCF_TYPE SYMM_JK
}

energy('HF')
--------------------------------------------------------------------------

  Memory set to  55.879 GiB by Python driver.

*** tstart() called on hex15
*** at Tue Mar  6 00:30:45 2018

   => Loading Basis Set <=

    Name: CC-PVQZ
    Role: ORBITAL
    Keyword: BASIS
    atoms 1, 9, 17, 21                                entry N          line   289 file /theoryfs2/ds/schieber/Gits/mspsi4/objdir3/stage/usr/local/psi4/share/psi4/basis/cc-pvqz.gbs 
    atoms 2-3, 5-6, 10-11, 13-14, 18-19, 22-23, 25-26 entry C          line   239 file /theoryfs2/ds/schieber/Gits/mspsi4/objdir3/stage/usr/local/psi4/share/psi4/basis/cc-pvqz.gbs 
    atoms 4, 7-8, 12, 15-16, 20, 24, 27-28            entry O          line   339 file /theoryfs2/ds/schieber/Gits/mspsi4/objdir3/stage/usr/local/psi4/share/psi4/basis/cc-pvqz.gbs 
    atoms 29-54                                       entry H          line    22 file /theoryfs2/ds/schieber/Gits/mspsi4/objdir3/stage/usr/local/psi4/share/psi4/basis/cc-pvqz.gbs 


         ---------------------------------------------------------
                                   SCF
            by Justin Turney, Rob Parrish, Andy Simmonett
                             and Daniel Smith
                              RHF Reference
                        6 Threads,  57220 MiB Core
         ---------------------------------------------------------

  ==> Geometry <==

    Molecular point group: c1
    Full point group: C1

    Geometry (in Angstrom), charge = 0, multiplicity = 1:

       Center              X                  Y                   Z               Mass       
    ------------   -----------------  -----------------  -----------------  -----------------
           N          0.020074539305     5.686424476598     3.129539240050    14.003074004780
           C         -0.752925460695     4.758424476598     2.339539240050    12.000000000000
           C         -1.660925460695     5.534424476598     1.388539240050    12.000000000000
           O         -2.762925460695     5.920424476598     1.739539240050    15.994914619560
           C         -1.558925460695     3.884424476598     3.313539240050    12.000000000000
           C         -2.289925460695     2.755424476598     2.648539240050    12.000000000000
           O         -2.369925460695     2.700424476598     1.407539240050    15.994914619560
           O         -2.843925460695     1.938424476598     3.384539240050    15.994914619560
           N         -1.198925460695     2.296424476598    -4.934460759950    14.003074004780
           C         -1.378925460695     1.993424476598    -3.523460759950    12.000000000000
           C         -0.050925460695     1.688424476598    -2.844460759950    12.000000000000
           O          0.397074539305     0.551424476598    -2.805460759950    15.994914619560
           C         -2.347925460695     0.814424476598    -3.413460759950    12.000000000000
           C         -2.846925460695     0.578424476598    -2.004460759950    12.000000000000
           O         -2.206925460695     1.022424476598    -1.044460759950    15.994914619560
           O         -3.874925460695    -0.082575523402    -1.852460759950    15.994914619560
           N          0.500074539305     1.441424476598     0.190539240050    14.003074004780
           C          0.351074539305     0.614424476598     1.378539240050    12.000000000000
           C          0.239074539305    -0.854575523402     1.022539240050    12.000000000000
           O          0.054074539305    -1.703575523402     1.919539240050    15.994914619560
           N          1.930074539305    -4.198575523402    -0.579460759950    14.003074004780
           C          3.173074539305    -4.845575523402    -1.001460759950    12.000000000000
           C          3.087074539305    -5.383575523402    -2.390460759950    12.000000000000
           O          4.036074539305    -5.255575523402    -3.136460759950    15.994914619560
           C          3.563074539305    -5.930575523402    -0.050460759950    12.000000000000
           C          3.666074539305    -5.420575523402     1.346539240050    12.000000000000
           O          4.108074539305    -4.275575523402     1.531539240050    15.994914619560
           O          3.230074539305    -6.110575523402     2.280539240050    15.994914619560
           H         -0.425925460695     6.232424476598     3.797539240050     1.007825032070
           H         -0.095925460695     4.077424476598     1.751539240050     1.007825032070
           H         -2.269925460695     4.518424476598     3.879539240050     1.007825032070
           H         -0.827925460695     3.428424476598     4.018539240050     1.007825032070
           H         -2.760925460695     1.944424476598     4.345539240050     1.007825032070
           H         -0.745925460695     1.663424476598    -5.520460759950     1.007825032070
           H         -1.881925460695     2.837424476598    -2.997460759950     1.007825032070
           H         -1.881925460695    -0.094575523402    -3.834460759950     1.007825032070
           H         -3.242925460695     1.087424476598    -4.016460759950     1.007825032070
           H         -1.868925460695     0.413424476598    -0.388460759950     1.007825032070
           H         -0.291925460695     2.013424476598    -0.120460759950     1.007825032070
           H         -0.590925460695     0.873424476598     1.893539240050     1.007825032070
           H          1.186074539305     0.809424476598     2.079539240050     1.007825032070
           H          1.370074539305    -4.684575523402     0.099539240050     1.007825032070
           H          3.996074539305    -4.093575523402    -0.960460759950     1.007825032070
           H          4.569074539305    -6.298575523402    -0.353460759950     1.007825032070
           H          2.859074539305    -6.791575523402    -0.105460759950     1.007825032070
           H          2.886074539305    -7.005575523402     2.136539240050     1.007825032070
           H          1.040074539305     5.661424476598     3.121539240050     1.007825032070
           H         -1.310925460695     5.657424476598     0.352539240050     1.007825032070
           H         -1.658925460695     3.100424476598    -5.361460759950     1.007825032070
           H          0.454074539305     2.526424476598    -2.342460759950     1.007825032070
           H          1.428074539305     1.589424476598    -0.207460759950     1.007825032070
           H          0.218074539305    -1.103575523402    -0.048460759950     1.007825032070
           H          1.591074539305    -3.362575523402    -1.054460759950     1.007825032070
           H          2.121074539305    -5.801575523402    -2.711460759950     1.007825032070

  Running in c1 symmetry.

  Rotational constants: A =      0.00569  B =      0.00205  C =      0.00170 [cm^-1]
  Rotational constants: A =    170.63320  B =     61.47394  C =     50.92296 [MHz]
  Nuclear repulsion = 2605.305023422821705

  Charge       = 0
  Multiplicity = 1
  Electrons    = 218
  Nalpha       = 109
  Nbeta        = 109

  ==> Algorithm <==

  SCF Algorithm Type is DF.
  DIIS enabled.
  MOM disabled.
  Fractional occupation disabled.
  Guess Type is SAD.
  Energy threshold   = 1.00e-06
  Density threshold  = 1.00e-06
  Integral threshold = 0.00e+00

  ==> Primary Basis <==

  Basis Set: CC-PVQZ
    Blend: CC-PVQZ
    Number of shells: 680
    Number of basis function: 2320
    Number of Cartesian functions: 2870
    Spherical Harmonics?: true
    Max angular momentum: 4

   => Loading Basis Set <=

    Name: (CC-PVQZ AUX)
    Role: JKFIT
    Keyword: DF_BASIS_SCF
    atoms 1, 9, 17, 21                                entry N          line   195 file /theoryfs2/ds/schieber/Gits/mspsi4/objdir3/stage/usr/local/psi4/share/psi4/basis/cc-pvqz-jkfit.gbs 
    atoms 2-3, 5-6, 10-11, 13-14, 18-19, 22-23, 25-26 entry C          line   137 file /theoryfs2/ds/schieber/Gits/mspsi4/objdir3/stage/usr/local/psi4/share/psi4/basis/cc-pvqz-jkfit.gbs 
    atoms 4, 7-8, 12, 15-16, 20, 24, 27-28            entry O          line   253 file /theoryfs2/ds/schieber/Gits/mspsi4/objdir3/stage/usr/local/psi4/share/psi4/basis/cc-pvqz-jkfit.gbs 
    atoms 29-54                                       entry H          line    51 file /theoryfs2/ds/schieber/Gits/mspsi4/objdir3/stage/usr/local/psi4/share/psi4/basis/cc-pvqz-jkfit.gbs 

  ==> Pre-Iterations <==

   -------------------------------------------------------
    Irrep   Nso     Nmo     Nalpha   Nbeta   Ndocc  Nsocc
   -------------------------------------------------------
     A       2320    2320       0       0       0       0
   -------------------------------------------------------
    Total    2320    2320     109     109     109       0
   -------------------------------------------------------

  ==> Integral Setup <==


    ==> DF_Helper memory announcement <==
        Turning off in-core AOs.  DF_Helper needs at least (88.2667GB), but it only got (45GB)

    ==> DF_Helper <==
      nao           = 2320
      naux          = 4294
      Scwarz cutoff = 1.000000E-12
      mem (doubles) = 5625000000
      nthreads      = 6
      Algorithm     = STORE
      AO_core?      = 0
      MO_core?      = 0
      hold metric   = 0
      metric power  = -5.000000E-01
  Fitting condition = 1.000000E-12
  Mask sparsity (%) = (62.717449)


  Minimum eigenvalue in the overlap matrix is 4.3598176973E-05.
  Using Symmetric Orthogonalization.

  SCF Guess: Superposition of Atomic Densities via on-the-fly atomic UHF.

  ==> Iterations <==

                           Total Energy        Delta E     RMS |[F,P]|

   @DF-RHF iter   0: -1521.21706721466626   -1.52122e+03   1.03761e-02 
   @DF-RHF iter   1: -1511.25166824902180    9.96540e+00   1.37566e-03 
   @DF-RHF iter   2: -1511.91850805284435   -6.66840e-01   9.33021e-04 DIIS
   @DF-RHF iter   3: -1512.20482003487518   -2.86312e-01   2.13598e-04 DIIS
   @DF-RHF iter   4: -1512.23756987167758   -3.27498e-02   7.43853e-05 DIIS
   @DF-RHF iter   5: -1512.24226576923184   -4.69590e-03   2.84923e-05 DIIS
   @DF-RHF iter   6: -1512.24339948495231   -1.13372e-03   1.39694e-05 DIIS
   @DF-RHF iter   7: -1512.24369590548190   -2.96421e-04   5.84644e-06 DIIS
   @DF-RHF iter   8: -1512.24375010732956   -5.42018e-05   2.87206e-06 DIIS
   @DF-RHF iter   9: -1512.24376338435513   -1.32770e-05   1.19997e-06 DIIS
   @DF-RHF iter  10: -1512.24376655344963   -3.16909e-06   5.68078e-07 DIIS
   @DF-RHF iter  11: -1512.24376738901674   -8.35567e-07   2.37864e-07 DIIS

  ==> Post-Iterations <==

    Orbital Energies (a.u.)
    -----------------------

    Doubly Occupied:                                                      

       1A    -20.644225     2A    -20.634531     3A    -20.602525  
       4A    -20.567532     5A    -20.559730     6A    -20.557371  
       7A    -20.556712     8A    -20.539009     9A    -20.518326  
      10A    -20.515098    11A    -15.557506    12A    -15.551339  
      13A    -15.548182    14A    -15.542131    15A    -11.396683  
      16A    -11.381810    17A    -11.366519    18A    -11.344861  
      19A    -11.337836    20A    -11.335950    21A    -11.325938  
      22A    -11.296608    23A    -11.290747    24A    -11.281403  
      25A    -11.275493    26A    -11.264910    27A    -11.264729  
      28A    -11.238967    29A     -1.528685    30A     -1.512396  
      31A     -1.500117    32A     -1.397968    33A     -1.392320  
      34A     -1.391936    35A     -1.368051    36A     -1.358095  
      37A     -1.339461    38A     -1.333655    39A     -1.214392  
      40A     -1.203040    41A     -1.193418    42A     -1.185750  
      43A     -1.056421    44A     -1.055627    45A     -1.044572  
      46A     -0.965320    47A     -0.950845    48A     -0.940341  
      49A     -0.938290    50A     -0.907724    51A     -0.890759  
      52A     -0.876357    53A     -0.810768    54A     -0.803796  
      55A     -0.798954    56A     -0.796590    57A     -0.748628  
      58A     -0.733902    59A     -0.733056    60A     -0.719724  
      61A     -0.712239    62A     -0.706955    63A     -0.696532  
      64A     -0.694599    65A     -0.689341    66A     -0.686605  
      67A     -0.679828    68A     -0.667187    69A     -0.665893  
      70A     -0.663112    71A     -0.659861    72A     -0.658352  
      73A     -0.655014    74A     -0.644410    75A     -0.634796  
      76A     -0.632164    77A     -0.631025    78A     -0.630192  
      79A     -0.623657    80A     -0.610414    81A     -0.591089  
      82A     -0.578202    83A     -0.574572    84A     -0.567529  
      85A     -0.563912    86A     -0.560027    87A     -0.550248  
      88A     -0.533717    89A     -0.532695    90A     -0.531620  
      91A     -0.522336    92A     -0.516462    93A     -0.507680  
      94A     -0.501526    95A     -0.488914    96A     -0.475439  
      97A     -0.463475    98A     -0.459719    99A     -0.458130  
     100A     -0.449712   101A     -0.445787   102A     -0.444454  
     103A     -0.440939   104A     -0.436604   105A     -0.433148  
     106A     -0.387388   107A     -0.382989   108A     -0.378893  
     109A     -0.376780  

    Virtual:                                                              

     110A      0.077166   111A      0.082317   112A      0.084750  
     113A      0.093313   114A      0.096954   115A      0.100831  
     116A      0.110335   117A      0.117792   118A      0.125030  
     119A      0.130876   120A      0.133555   121A      0.135268  
     122A      0.139782   123A      0.141702   124A      0.144625  
     125A      0.151172   126A      0.154687   127A      0.157763  
     128A      0.161957   129A      0.169617   130A      0.173619  
     131A      0.176525   132A      0.179150   133A      0.185614  
     134A      0.188522   135A      0.193429   136A      0.196674  
     137A      0.201267   138A      0.204353   139A      0.215809  
     140A      0.223110   141A      0.238985   142A      0.242747  
     143A      0.244079   144A      0.256686   145A      0.258608  
     146A      0.261681   147A      0.270078   148A      0.276307  
     149A      0.279798   150A      0.281371   151A      0.284669  
     152A      0.289400   153A      0.295555   154A      0.299435  
     155A      0.310925   156A      0.315861   157A      0.318170  
     158A      0.322595   159A      0.323860   160A      0.330080  
     161A      0.336902   162A      0.337999   163A      0.342021  
     164A      0.346202   165A      0.352127   166A      0.353316  
     167A      0.358505   168A      0.360693   169A      0.368564  
     170A      0.369774   171A      0.377764   172A      0.380000  
     173A      0.383375   174A      0.386725   175A      0.390521  
     176A      0.396013   177A      0.399681   178A      0.402392  
     179A      0.407148   180A      0.412453   181A      0.415479  
     182A      0.420623   183A      0.424656   184A      0.425789  
     185A      0.427835   186A      0.430419   187A      0.432726  
     188A      0.435875   189A      0.438335   190A      0.439501  
     191A      0.445975   192A      0.450174   193A      0.453846  
     194A      0.458329   195A      0.461714   196A      0.466462  
     197A      0.468106   198A      0.470701   199A      0.473384  
     200A      0.475951   201A      0.479336   202A      0.482122  
     203A      0.485664   204A      0.486386   205A      0.491939  
     206A      0.494052   207A      0.500778   208A      0.502574  
     209A      0.504883   210A      0.506871   211A      0.508729  
     212A      0.513068   213A      0.515555   214A      0.517757  
     215A      0.520452   216A      0.522174   217A      0.525925  
     218A      0.530211   219A      0.534281   220A      0.538480  
     221A      0.540499   222A      0.541889   223A      0.548945  
     224A      0.553947   225A      0.556096   226A      0.558224  
     227A      0.560170   228A      0.562750   229A      0.565390  
     230A      0.568393   231A      0.569975   232A      0.575069  
     233A      0.579065   234A      0.581116   235A      0.584276  
     236A      0.586439   237A      0.587650   238A      0.592417  
     239A      0.597424   240A      0.603732   241A      0.605198  
     242A      0.607025   243A      0.609756   244A      0.614394  
     245A      0.623122   246A      0.624773   247A      0.628702  
     248A      0.635870   249A      0.644633   250A      0.648044  
     251A      0.649284   252A      0.651496   253A      0.652949  
     254A      0.658407   255A      0.663780   256A      0.666227  
     257A      0.668517   258A      0.672344   259A      0.678183  
     260A      0.681970   261A      0.683786   262A      0.685255  
     263A      0.690535   264A      0.697347   265A      0.699139  
     266A      0.703629   267A      0.705881   268A      0.709091  
     269A      0.710217   270A      0.718394   271A      0.722799  
     272A      0.724755   273A      0.727387   274A      0.733222  
     275A      0.736060   276A      0.740375   277A      0.744909  
     278A      0.749264   279A      0.752774   280A      0.756019  
     281A      0.758974   282A      0.763305   283A      0.764229  
     284A      0.771053   285A      0.771330   286A      0.775847  
     287A      0.779616   288A      0.788698   289A      0.792392  
     290A      0.793907   291A      0.795060   292A      0.797462  
     293A      0.807903   294A      0.813228   295A      0.818948  
     296A      0.823242   297A      0.825300   298A      0.827089  
     299A      0.832350   300A      0.839935   301A      0.843543  
     302A      0.849660   303A      0.853146   304A      0.854494  
     305A      0.858423   306A      0.865206   307A      0.869098  
     308A      0.874652   309A      0.879572   310A      0.881520  
     311A      0.886913   312A      0.887761   313A      0.895154  
     314A      0.897530   315A      0.902947   316A      0.906671  
     317A      0.909422   318A      0.911567   319A      0.916387  
     320A      0.918651   321A      0.923108   322A      0.924602  
     323A      0.931179   324A      0.939604   325A      0.940039  
     326A      0.943527   327A      0.946067   328A      0.948802  
     329A      0.951136   330A      0.958607   331A      0.962593  
     332A      0.965267   333A      0.967820   334A      0.970793  
     335A      0.976424   336A      0.981586   337A      0.985627  
     338A      0.988546   339A      0.990871   340A      0.994553  
     341A      0.999494   342A      1.002325   343A      1.005313  
     344A      1.009631   345A      1.013401   346A      1.018774  
     347A      1.023057   348A      1.024543   349A      1.028329  
     350A      1.030416   351A      1.032134   352A      1.035438  
     353A      1.036326   354A      1.040520   355A      1.042538  
     356A      1.045864   357A      1.048728   358A      1.052195  
     359A      1.057231   360A      1.061172   361A      1.061846  
     362A      1.065074   363A      1.071071   364A      1.076551  
     365A      1.079080   366A      1.082624   367A      1.087218  
     368A      1.088858   369A      1.091755   370A      1.097120  
     371A      1.101025   372A      1.103695   373A      1.106830  
     374A      1.108597   375A      1.113077   376A      1.113601  
     377A      1.119777   378A      1.123451   379A      1.125091  
     380A      1.131198   381A      1.137500   382A      1.138465  
     383A      1.142677   384A      1.149516   385A      1.151500  
     386A      1.153173   387A      1.156355   388A      1.159535  
     389A      1.164128   390A      1.166772   391A      1.170408  
     392A      1.172186   393A      1.173892   394A      1.180478  
     395A      1.186511   396A      1.188710   397A      1.192760  
     398A      1.194540   399A      1.197128   400A      1.201071  
     401A      1.202895   402A      1.208842   403A      1.209754  
     404A      1.216850   405A      1.222255   406A      1.229620  
     407A      1.232239   408A      1.234487   409A      1.240748  
     410A      1.246633   411A      1.246875   412A      1.250781  
     413A      1.253114   414A      1.255895   415A      1.261379  
     416A      1.266672   417A      1.268005   418A      1.274091  
     419A      1.277853   420A      1.282247   421A      1.286317  
     422A      1.290274   423A      1.298229   424A      1.301668  
     425A      1.304884   426A      1.306501   427A      1.311847  
     428A      1.313898   429A      1.320262   430A      1.326891  
     431A      1.327631   432A      1.330523   433A      1.335438  
     434A      1.344564   435A      1.350863   436A      1.356197  
     437A      1.361153   438A      1.362643   439A      1.369302  
     440A      1.372374   441A      1.378817   442A      1.382051  
     443A      1.387219   444A      1.393354   445A      1.403030  
     446A      1.405005   447A      1.408816   448A      1.417061  
     449A      1.423342   450A      1.430363   451A      1.434600  
     452A      1.439150   453A      1.453502   454A      1.455624  
     455A      1.462914   456A      1.473738   457A      1.478157  
     458A      1.486806   459A      1.492600   460A      1.495772  
     461A      1.501424   462A      1.502083   463A      1.508674  
     464A      1.508997   465A      1.511232   466A      1.518087  
     467A      1.522618   468A      1.523463   469A      1.526028  
     470A      1.536618   471A      1.537403   472A      1.543419  
     473A      1.548034   474A      1.562078   475A      1.566996  
     476A      1.574181   477A      1.577954   478A      1.585559  
     479A      1.592081   480A      1.596092   481A      1.601682  
     482A      1.607573   483A      1.608733   484A      1.618969  
     485A      1.619922   486A      1.627139   487A      1.628462  
     488A      1.632986   489A      1.641712   490A      1.649690  
     491A      1.653020   492A      1.655240   493A      1.657423  
     494A      1.662108   495A      1.669347   496A      1.672518  
     497A      1.682400   498A      1.684349   499A      1.687661  
     500A      1.693547   501A      1.699900   502A      1.706753  
     503A      1.717514   504A      1.722554   505A      1.724632  
     506A      1.728955   507A      1.732369   508A      1.734560  
     509A      1.742013   510A      1.749765   511A      1.753179  
     512A      1.756037   513A      1.761473   514A      1.767299  
     515A      1.770760   516A      1.775073   517A      1.779867  
     518A      1.781764   519A      1.786675   520A      1.789800  
     521A      1.798328   522A      1.800392   523A      1.805243  
     524A      1.808765   525A      1.816110   526A      1.819012  
     527A      1.820770   528A      1.828505   529A      1.829378  
     530A      1.837914   531A      1.838493   532A      1.839657  
     533A      1.845993   534A      1.848399   535A      1.858035  
     536A      1.862337   537A      1.867835   538A      1.872380  
     539A      1.873120   540A      1.885356   541A      1.891272  
     542A      1.901052   543A      1.905167   544A      1.905753  
     545A      1.908475   546A      1.915535   547A      1.924239  
     548A      1.925505   549A      1.929483   550A      1.934838  
     551A      1.940502   552A      1.941414   553A      1.948685  
     554A      1.953578   555A      1.955892   556A      1.959359  
     557A      1.964344   558A      1.972214   559A      1.973680  
     560A      1.988093   561A      1.991836   562A      1.992553  
     563A      1.995860   564A      1.999274   565A      2.004776  
     566A      2.009803   567A      2.014136   568A      2.022775  
     569A      2.027949   570A      2.034536   571A      2.036578  
     572A      2.040027   573A      2.043526   574A      2.046038  
     575A      2.051440   576A      2.053941   577A      2.057801  
     578A      2.063732   579A      2.067138   580A      2.071322  
     581A      2.072960   582A      2.075537   583A      2.082352  
     584A      2.083708   585A      2.089782   586A      2.091877  
     587A      2.093646   588A      2.098186   589A      2.105031  
     590A      2.109129   591A      2.112023   592A      2.116860  
     593A      2.118456   594A      2.122820   595A      2.127668  
     596A      2.130284   597A      2.131108   598A      2.144532  
     599A      2.146850   600A      2.149573   601A      2.153046  
     602A      2.160330   603A      2.164586   604A      2.169419  
     605A      2.170068   606A      2.174683   607A      2.176286  
     608A      2.182201   609A      2.184530   610A      2.191106  
     611A      2.194469   612A      2.198414   613A      2.200180  
     614A      2.207579   615A      2.211117   616A      2.214375  
     617A      2.218696   618A      2.224112   619A      2.225447  
     620A      2.225730   621A      2.231015   622A      2.237285  
     623A      2.240673   624A      2.243968   625A      2.246644  
     626A      2.252380   627A      2.257121   628A      2.261562  
     629A      2.266435   630A      2.267071   631A      2.269203  
     632A      2.274919   633A      2.280549   634A      2.281156  
     635A      2.288574   636A      2.292555   637A      2.296140  
     638A      2.300372   639A      2.302560   640A      2.305149  
     641A      2.306923   642A      2.308465   643A      2.316217  
     644A      2.318468   645A      2.325561   646A      2.328853  
     647A      2.331841   648A      2.340258   649A      2.344449  
     650A      2.348758   651A      2.354543   652A      2.355452  
     653A      2.357167   654A      2.361467   655A      2.368479  
     656A      2.371169   657A      2.373915   658A      2.379075  
     659A      2.383004   660A      2.385150   661A      2.387268  
     662A      2.392371   663A      2.393463   664A      2.402746  
     665A      2.403655   666A      2.405695   667A      2.409944  
     668A      2.412883   669A      2.416568   670A      2.423121  
     671A      2.430523   672A      2.432637   673A      2.436049  
     674A      2.439378   675A      2.440610   676A      2.448746  
     677A      2.451563   678A      2.454154   679A      2.457710  
     680A      2.461044   681A      2.462418   682A      2.467649  
     683A      2.470512   684A      2.473398   685A      2.478015  
     686A      2.483699   687A      2.488781   688A      2.493031  
     689A      2.495461   690A      2.499520   691A      2.501506  
     692A      2.505657   693A      2.510778   694A      2.513077  
     695A      2.516180   696A      2.518639   697A      2.520899  
     698A      2.524438   699A      2.527547   700A      2.534142  
     701A      2.535578   702A      2.539692   703A      2.546584  
     704A      2.550124   705A      2.554091   706A      2.555771  
     707A      2.562320   708A      2.563486   709A      2.569645  
     710A      2.573587   711A      2.575719   712A      2.583504  
     713A      2.587968   714A      2.591356   715A      2.593338  
     716A      2.599049   717A      2.600542   718A      2.601347  
     719A      2.605137   720A      2.610696   721A      2.614004  
     722A      2.615983   723A      2.619427   724A      2.624179  
     725A      2.624797   726A      2.626859   727A      2.632299  
     728A      2.639221   729A      2.641444   730A      2.643827  
     731A      2.646220   732A      2.649414   733A      2.653851  
     734A      2.662420   735A      2.665720   736A      2.667401  
     737A      2.672934   738A      2.678660   739A      2.685559  
     740A      2.687115   741A      2.691592   742A      2.696824  
     743A      2.700053   744A      2.703377   745A      2.709720  
     746A      2.720044   747A      2.723461   748A      2.726868  
     749A      2.729651   750A      2.731902   751A      2.736838  
     752A      2.740366   753A      2.743942   754A      2.745045  
     755A      2.750689   756A      2.757407   757A      2.761567  
     758A      2.764071   759A      2.766596   760A      2.770091  
     761A      2.778161   762A      2.780632   763A      2.782191  
     764A      2.785620   765A      2.787917   766A      2.793782  
     767A      2.801233   768A      2.802919   769A      2.804445  
     770A      2.809043   771A      2.817240   772A      2.820880  
     773A      2.824629   774A      2.828857   775A      2.835346  
     776A      2.840699   777A      2.843554   778A      2.848125  
     779A      2.851894   780A      2.854212   781A      2.863681  
     782A      2.864042   783A      2.866878   784A      2.870090  
     785A      2.876466   786A      2.880495   787A      2.886460  
     788A      2.887699   789A      2.893744   790A      2.897239  
     791A      2.906615   792A      2.910102   793A      2.913366  
     794A      2.918430   795A      2.926833   796A      2.932285  
     797A      2.939014   798A      2.942066   799A      2.943262  
     800A      2.946328   801A      2.950262   802A      2.951393  
     803A      2.954883   804A      2.962885   805A      2.965169  
     806A      2.967798   807A      2.972095   808A      2.979959  
     809A      2.982671   810A      2.988286   811A      2.993423  
     812A      2.999818   813A      3.003121   814A      3.007305  
     815A      3.009428   816A      3.015481   817A      3.021236  
     818A      3.025488   819A      3.029679   820A      3.032968  
     821A      3.034048   822A      3.039733   823A      3.044656  
     824A      3.051672   825A      3.056046   826A      3.056828  
     827A      3.062095   828A      3.067940   829A      3.074634  
     830A      3.079317   831A      3.082168   832A      3.084548  
     833A      3.087385   834A      3.100120   835A      3.103402  
     836A      3.106637   837A      3.109118   838A      3.118291  
     839A      3.120672   840A      3.124687   841A      3.126647  
     842A      3.129616   843A      3.131874   844A      3.135410  
     845A      3.144306   846A      3.147028   847A      3.152806  
     848A      3.156561   849A      3.160441   850A      3.162361  
     851A      3.169031   852A      3.178045   853A      3.183158  
     854A      3.188998   855A      3.194317   856A      3.198229  
     857A      3.203438   858A      3.209911   859A      3.213636  
     860A      3.214761   861A      3.222195   862A      3.230042  
     863A      3.231308   864A      3.236769   865A      3.242455  
     866A      3.247421   867A      3.252851   868A      3.258636  
     869A      3.260676   870A      3.262954   871A      3.271608  
     872A      3.273323   873A      3.286262   874A      3.290549  
     875A      3.295267   876A      3.299176   877A      3.311529  
     878A      3.311756   879A      3.313546   880A      3.316324  
     881A      3.322758   882A      3.328717   883A      3.331680  
     884A      3.336631   885A      3.343867   886A      3.346866  
     887A      3.358588   888A      3.363251   889A      3.364962  
     890A      3.368225   891A      3.374973   892A      3.377499  
     893A      3.380197   894A      3.382844   895A      3.392958  
     896A      3.396300   897A      3.397204   898A      3.403458  
     899A      3.407161   900A      3.411476   901A      3.415213  
     902A      3.422519   903A      3.428947   904A      3.432377  
     905A      3.436353   906A      3.440309   907A      3.442061  
     908A      3.448560   909A      3.453640   910A      3.465749  
     911A      3.466025   912A      3.473695   913A      3.477777  
     914A      3.481606   915A      3.490012   916A      3.493276  
     917A      3.498230   918A      3.502617   919A      3.506039  
     920A      3.510973   921A      3.516355   922A      3.517665  
     923A      3.523229   924A      3.529162   925A      3.532936  
     926A      3.541871   927A      3.546254   928A      3.554975  
     929A      3.563591   930A      3.566208   931A      3.568258  
     932A      3.578739   933A      3.584649   934A      3.588825  
     935A      3.592763   936A      3.600096   937A      3.602405  
     938A      3.605084   939A      3.608210   940A      3.611668  
     941A      3.613207   942A      3.620024   943A      3.626101  
     944A      3.628082   945A      3.633021   946A      3.641193  
     947A      3.642101   948A      3.643756   949A      3.652417  
     950A      3.659868   951A      3.662721   952A      3.665012  
     953A      3.668886   954A      3.672620   955A      3.675128  
     956A      3.686987   957A      3.690491   958A      3.697181  
     959A      3.699559   960A      3.701605   961A      3.709762  
     962A      3.716155   963A      3.728768   964A      3.735606  
     965A      3.737170   966A      3.748278   967A      3.751085  
     968A      3.753268   969A      3.758826   970A      3.761528  
     971A      3.763213   972A      3.774103   973A      3.779711  
     974A      3.781889   975A      3.788140   976A      3.795200  
     977A      3.797792   978A      3.800840   979A      3.809907  
     980A      3.813068   981A      3.814830   982A      3.821717  
     983A      3.827703   984A      3.828692   985A      3.832618  
     986A      3.837058   987A      3.846363   988A      3.849483  
     989A      3.853083   990A      3.855389   991A      3.857868  
     992A      3.860228   993A      3.863284   994A      3.865614  
     995A      3.870562   996A      3.874593   997A      3.880769  
     998A      3.883375   999A      3.884658  1000A      3.900426  
    1001A      3.908720  1002A      3.919310  1003A      3.922919  
    1004A      3.927801  1005A      3.934288  1006A      3.935769  
    1007A      3.939559  1008A      3.947600  1009A      3.952168  
    1010A      3.954926  1011A      3.956894  1012A      3.976404  
    1013A      3.980772  1014A      3.985297  1015A      3.993032  
    1016A      3.998835  1017A      4.002039  1018A      4.003922  
    1019A      4.015285  1020A      4.023112  1021A      4.028803  
    1022A      4.032259  1023A      4.036872  1024A      4.044255  
    1025A      4.062968  1026A      4.065246  1027A      4.069007  
    1028A      4.072642  1029A      4.073270  1030A      4.075807  
    1031A      4.084600  1032A      4.087346  1033A      4.088070  
    1034A      4.099674  1035A      4.114257  1036A      4.121021  
    1037A      4.129925  1038A      4.133802  1039A      4.136967  
    1040A      4.141129  1041A      4.143814  1042A      4.148044  
    1043A      4.152902  1044A      4.154343  1045A      4.165558  
    1046A      4.171715  1047A      4.172809  1048A      4.185059  
    1049A      4.195099  1050A      4.202646  1051A      4.207389  
    1052A      4.213837  1053A      4.215787  1054A      4.223312  
    1055A      4.231566  1056A      4.235034  1057A      4.237497  
    1058A      4.246455  1059A      4.256630  1060A      4.262049  
    1061A      4.262825  1062A      4.264559  1063A      4.280597  
    1064A      4.291992  1065A      4.292795  1066A      4.300885  
    1067A      4.304772  1068A      4.309004  1069A      4.312998  
    1070A      4.318106  1071A      4.322707  1072A      4.329083  
    1073A      4.331389  1074A      4.341293  1075A      4.342452  
    1076A      4.345250  1077A      4.365801  1078A      4.370026  
    1079A      4.373495  1080A      4.385387  1081A      4.386214  
    1082A      4.396078  1083A      4.404429  1084A      4.417272  
    1085A      4.417850  1086A      4.421462  1087A      4.423471  
    1088A      4.429004  1089A      4.431679  1090A      4.440382  
    1091A      4.444278  1092A      4.448328  1093A      4.458698  
    1094A      4.459929  1095A      4.471786  1096A      4.475998  
    1097A      4.484070  1098A      4.494845  1099A      4.496197  
    1100A      4.504982  1101A      4.507912  1102A      4.515559  
    1103A      4.518019  1104A      4.527636  1105A      4.534681  
    1106A      4.543700  1107A      4.547581  1108A      4.554538  
    1109A      4.559261  1110A      4.561071  1111A      4.568641  
    1112A      4.580988  1113A      4.589147  1114A      4.589482  
    1115A      4.595203  1116A      4.606192  1117A      4.610339  
    1118A      4.613531  1119A      4.615568  1120A      4.626406  
    1121A      4.634075  1122A      4.637708  1123A      4.644377  
    1124A      4.650737  1125A      4.658318  1126A      4.663658  
    1127A      4.670469  1128A      4.673053  1129A      4.683520  
    1130A      4.689830  1131A      4.699975  1132A      4.700517  
    1133A      4.713196  1134A      4.716686  1135A      4.720296  
    1136A      4.727728  1137A      4.734817  1138A      4.736298  
    1139A      4.750714  1140A      4.755406  1141A      4.769129  
    1142A      4.774326  1143A      4.780508  1144A      4.782978  
    1145A      4.792480  1146A      4.803524  1147A      4.809936  
    1148A      4.815967  1149A      4.821609  1150A      4.829338  
    1151A      4.836438  1152A      4.848582  1153A      4.849909  
    1154A      4.863444  1155A      4.866618  1156A      4.871520  
    1157A      4.881718  1158A      4.883120  1159A      4.887436  
    1160A      4.893888  1161A      4.904598  1162A      4.914064  
    1163A      4.919083  1164A      4.921824  1165A      4.958010  
    1166A      4.963870  1167A      4.979105  1168A      4.987278  
    1169A      4.990822  1170A      4.999276  1171A      5.014289  
    1172A      5.025341  1173A      5.031277  1174A      5.032276  
    1175A      5.055292  1176A      5.069458  1177A      5.078011  
    1178A      5.085840  1179A      5.091725  1180A      5.117212  
    1181A      5.126074  1182A      5.129145  1183A      5.145969  
    1184A      5.162514  1185A      5.177095  1186A      5.181716  
    1187A      5.190181  1188A      5.240289  1189A      5.256701  
    1190A      5.261790  1191A      5.284403  1192A      5.285018  
    1193A      5.290233  1194A      5.305529  1195A      5.311354  
    1196A      5.339050  1197A      5.342601  1198A      5.360610  
    1199A      5.369440  1200A      5.379127  1201A      5.382805  
    1202A      5.389152  1203A      5.398520  1204A      5.407262  
    1205A      5.437867  1206A      5.457625  1207A      5.458119  
    1208A      5.461576  1209A      5.480899  1210A      5.503052  
    1211A      5.507955  1212A      5.538275  1213A      5.556724  
    1214A      5.560306  1215A      5.565317  1216A      5.578007  
    1217A      5.585994  1218A      5.593626  1219A      5.597536  
    1220A      5.605469  1221A      5.615175  1222A      5.620104  
    1223A      5.638595  1224A      5.661950  1225A      5.682397  
    1226A      5.697952  1227A      5.700378  1228A      5.706334  
    1229A      5.715814  1230A      5.731620  1231A      5.745658  
    1232A      5.751970  1233A      5.754763  1234A      5.761522  
    1235A      5.771771  1236A      5.775124  1237A      5.778416  
    1238A      5.779530  1239A      5.784250  1240A      5.795441  
    1241A      5.802718  1242A      5.814975  1243A      5.832442  
    1244A      5.835422  1245A      5.842236  1246A      5.854105  
    1247A      5.863670  1248A      5.871523  1249A      5.873651  
    1250A      5.879321  1251A      5.889205  1252A      5.890767  
    1253A      5.897138  1254A      5.900603  1255A      5.909684  
    1256A      5.915528  1257A      5.918074  1258A      5.922763  
    1259A      5.933273  1260A      5.933843  1261A      5.948640  
    1262A      5.951452  1263A      5.953384  1264A      5.962495  
    1265A      5.965624  1266A      5.972410  1267A      5.978367  
    1268A      5.985030  1269A      5.988791  1270A      5.998662  
    1271A      5.998814  1272A      6.000885  1273A      6.004440  
    1274A      6.011226  1275A      6.012919  1276A      6.016691  
    1277A      6.020543  1278A      6.023887  1279A      6.028204  
    1280A      6.042325  1281A      6.048199  1282A      6.050854  
    1283A      6.056973  1284A      6.062098  1285A      6.068520  
    1286A      6.072259  1287A      6.080659  1288A      6.083207  
    1289A      6.088885  1290A      6.092391  1291A      6.096814  
    1292A      6.108479  1293A      6.110815  1294A      6.121199  
    1295A      6.129266  1296A      6.133497  1297A      6.135258  
    1298A      6.138986  1299A      6.142794  1300A      6.149404  
    1301A      6.150697  1302A      6.155516  1303A      6.160777  
    1304A      6.163390  1305A      6.166698  1306A      6.171035  
    1307A      6.173804  1308A      6.183102  1309A      6.188117  
    1310A      6.191984  1311A      6.197963  1312A      6.200888  
    1313A      6.205398  1314A      6.212474  1315A      6.214162  
    1316A      6.218254  1317A      6.221048  1318A      6.224137  
    1319A      6.225314  1320A      6.234236  1321A      6.238615  
    1322A      6.245717  1323A      6.250189  1324A      6.252481  
    1325A      6.258401  1326A      6.261006  1327A      6.265858  
    1328A      6.278910  1329A      6.288049  1330A      6.293662  
    1331A      6.297499  1332A      6.298738  1333A      6.307088  
    1334A      6.319709  1335A      6.322533  1336A      6.326968  
    1337A      6.328519  1338A      6.331465  1339A      6.333582  
    1340A      6.338206  1341A      6.342844  1342A      6.344784  
    1343A      6.347405  1344A      6.354540  1345A      6.361482  
    1346A      6.362930  1347A      6.368286  1348A      6.373016  
    1349A      6.376319  1350A      6.386333  1351A      6.390133  
    1352A      6.391859  1353A      6.393805  1354A      6.397236  
    1355A      6.402219  1356A      6.409832  1357A      6.412048  
    1358A      6.416783  1359A      6.419433  1360A      6.428875  
    1361A      6.431765  1362A      6.436958  1363A      6.441371  
    1364A      6.445772  1365A      6.456996  1366A      6.458823  
    1367A      6.459739  1368A      6.462372  1369A      6.463434  
    1370A      6.466687  1371A      6.471127  1372A      6.473794  
    1373A      6.477643  1374A      6.491250  1375A      6.496399  
    1376A      6.496616  1377A      6.500556  1378A      6.503425  
    1379A      6.504515  1380A      6.509959  1381A      6.515663  
    1382A      6.522463  1383A      6.523841  1384A      6.533486  
    1385A      6.540561  1386A      6.553137  1387A      6.555221  
    1388A      6.558754  1389A      6.567053  1390A      6.569192  
    1391A      6.570607  1392A      6.583843  1393A      6.585242  
    1394A      6.592337  1395A      6.600806  1396A      6.602836  
    1397A      6.605405  1398A      6.612148  1399A      6.614191  
    1400A      6.625350  1401A      6.627461  1402A      6.628556  
    1403A      6.632348  1404A      6.635335  1405A      6.637051  
    1406A      6.639792  1407A      6.646246  1408A      6.654092  
    1409A      6.662228  1410A      6.664763  1411A      6.666660  
    1412A      6.670519  1413A      6.676804  1414A      6.682299  
    1415A      6.684412  1416A      6.691717  1417A      6.699671  
    1418A      6.704548  1419A      6.709399  1420A      6.712767  
    1421A      6.720561  1422A      6.722417  1423A      6.730633  
    1424A      6.731615  1425A      6.733782  1426A      6.746056  
    1427A      6.753415  1428A      6.756713  1429A      6.768104  
    1430A      6.770007  1431A      6.780314  1432A      6.787351  
    1433A      6.788387  1434A      6.794696  1435A      6.798998  
    1436A      6.800712  1437A      6.808892  1438A      6.819909  
    1439A      6.826034  1440A      6.832691  1441A      6.838304  
    1442A      6.845042  1443A      6.849650  1444A      6.855492  
    1445A      6.869310  1446A      6.874238  1447A      6.881971  
    1448A      6.888969  1449A      6.898444  1450A      6.904619  
    1451A      6.910488  1452A      6.918085  1453A      6.919156  
    1454A      6.929840  1455A      6.931341  1456A      6.935564  
    1457A      6.937343  1458A      6.939564  1459A      6.951572  
    1460A      6.963094  1461A      6.966948  1462A      6.973727  
    1463A      6.976047  1464A      6.985513  1465A      6.995733  
    1466A      7.008887  1467A      7.015819  1468A      7.018138  
    1469A      7.019812  1470A      7.030407  1471A      7.030481  
    1472A      7.046630  1473A      7.052118  1474A      7.052868  
    1475A      7.057721  1476A      7.064887  1477A      7.069715  
    1478A      7.081190  1479A      7.086905  1480A      7.087481  
    1481A      7.089919  1482A      7.093525  1483A      7.097051  
    1484A      7.103313  1485A      7.118632  1486A      7.120026  
    1487A      7.126781  1488A      7.134214  1489A      7.142750  
    1490A      7.146185  1491A      7.151688  1492A      7.157312  
    1493A      7.167904  1494A      7.170610  1495A      7.177649  
    1496A      7.191982  1497A      7.196799  1498A      7.197479  
    1499A      7.205806  1500A      7.206727  1501A      7.210872  
    1502A      7.224192  1503A      7.229697  1504A      7.243983  
    1505A      7.245092  1506A      7.246354  1507A      7.253382  
    1508A      7.257154  1509A      7.262100  1510A      7.268918  
    1511A      7.271279  1512A      7.282027  1513A      7.283965  
    1514A      7.284906  1515A      7.295986  1516A      7.304249  
    1517A      7.315463  1518A      7.317402  1519A      7.328728  
    1520A      7.338859  1521A      7.346238  1522A      7.352678  
    1523A      7.361924  1524A      7.372060  1525A      7.374539  
    1526A      7.375915  1527A      7.382352  1528A      7.388625  
    1529A      7.406924  1530A      7.410903  1531A      7.414651  
    1532A      7.426387  1533A      7.427626  1534A      7.432441  
    1535A      7.444357  1536A      7.445503  1537A      7.451438  
    1538A      7.456515  1539A      7.458743  1540A      7.459494  
    1541A      7.468993  1542A      7.473845  1543A      7.479452  
    1544A      7.486230  1545A      7.495826  1546A      7.505141  
    1547A      7.506357  1548A      7.518116  1549A      7.520396  
    1550A      7.526934  1551A      7.532662  1552A      7.538533  
    1553A      7.546222  1554A      7.552840  1555A      7.557173  
    1556A      7.562022  1557A      7.568458  1558A      7.576589  
    1559A      7.580763  1560A      7.585722  1561A      7.592599  
    1562A      7.599394  1563A      7.606644  1564A      7.607762  
    1565A      7.615196  1566A      7.619817  1567A      7.623639  
    1568A      7.625975  1569A      7.626448  1570A      7.627830  
    1571A      7.644767  1572A      7.658575  1573A      7.662924  
    1574A      7.666660  1575A      7.673027  1576A      7.677629  
    1577A      7.679391  1578A      7.683240  1579A      7.689246  
    1580A      7.690665  1581A      7.691426  1582A      7.700891  
    1583A      7.707179  1584A      7.712185  1585A      7.722462  
    1586A      7.726092  1587A      7.735120  1588A      7.735561  
    1589A      7.748721  1590A      7.752796  1591A      7.757549  
    1592A      7.759706  1593A      7.766040  1594A      7.769975  
    1595A      7.774510  1596A      7.776808  1597A      7.784554  
    1598A      7.796938  1599A      7.800687  1600A      7.807738  
    1601A      7.811410  1602A      7.815248  1603A      7.822367  
    1604A      7.833845  1605A      7.836078  1606A      7.841281  
    1607A      7.844006  1608A      7.851515  1609A      7.854643  
    1610A      7.856485  1611A      7.862328  1612A      7.864991  
    1613A      7.866062  1614A      7.868669  1615A      7.879091  
    1616A      7.880381  1617A      7.888679  1618A      7.890075  
    1619A      7.898397  1620A      7.910602  1621A      7.911701  
    1622A      7.914437  1623A      7.916666  1624A      7.919683  
    1625A      7.925396  1626A      7.931237  1627A      7.936668  
    1628A      7.941736  1629A      7.950190  1630A      7.956430  
    1631A      7.969576  1632A      7.974261  1633A      7.976463  
    1634A      7.985677  1635A      7.993751  1636A      7.998016  
    1637A      8.005899  1638A      8.008278  1639A      8.014287  
    1640A      8.022394  1641A      8.026257  1642A      8.030241  
    1643A      8.039160  1644A      8.044566  1645A      8.046604  
    1646A      8.048582  1647A      8.057625  1648A      8.064151  
    1649A      8.068205  1650A      8.075368  1651A      8.077202  
    1652A      8.082570  1653A      8.092624  1654A      8.095697  
    1655A      8.098361  1656A      8.103298  1657A      8.107389  
    1658A      8.116461  1659A      8.119187  1660A      8.126834  
    1661A      8.133802  1662A      8.150372  1663A      8.152928  
    1664A      8.168747  1665A      8.170975  1666A      8.174378  
    1667A      8.181316  1668A      8.182552  1669A      8.192738  
    1670A      8.196432  1671A      8.196976  1672A      8.202243  
    1673A      8.206686  1674A      8.216114  1675A      8.218827  
    1676A      8.220256  1677A      8.224296  1678A      8.230428  
    1679A      8.232521  1680A      8.238583  1681A      8.241058  
    1682A      8.243043  1683A      8.249386  1684A      8.251469  
    1685A      8.258250  1686A      8.262721  1687A      8.263300  
    1688A      8.266513  1689A      8.274162  1690A      8.281638  
    1691A      8.282606  1692A      8.283558  1693A      8.287528  
    1694A      8.294340  1695A      8.301998  1696A      8.309550  
    1697A      8.315000  1698A      8.319105  1699A      8.327825  
    1700A      8.330480  1701A      8.335194  1702A      8.342321  
    1703A      8.347984  1704A      8.349851  1705A      8.356688  
    1706A      8.358964  1707A      8.364155  1708A      8.366688  
    1709A      8.371030  1710A      8.380425  1711A      8.382162  
    1712A      8.388386  1713A      8.393365  1714A      8.397829  
    1715A      8.399948  1716A      8.404988  1717A      8.412783  
    1718A      8.413954  1719A      8.416546  1720A      8.422669  
    1721A      8.429474  1722A      8.431129  1723A      8.435611  
    1724A      8.444065  1725A      8.446374  1726A      8.455034  
    1727A      8.458664  1728A      8.460945  1729A      8.466479  
    1730A      8.471797  1731A      8.474748  1732A      8.477281  
    1733A      8.486291  1734A      8.491895  1735A      8.496796  
    1736A      8.503144  1737A      8.508507  1738A      8.516431  
    1739A      8.522475  1740A      8.529465  1741A      8.530980  
    1742A      8.532977  1743A      8.537780  1744A      8.544052  
    1745A      8.548495  1746A      8.558060  1747A      8.560089  
    1748A      8.565372  1749A      8.572726  1750A      8.583706  
    1751A      8.592850  1752A      8.600053  1753A      8.601230  
    1754A      8.608034  1755A      8.610064  1756A      8.612898  
    1757A      8.617570  1758A      8.625160  1759A      8.629548  
    1760A      8.643279  1761A      8.644956  1762A      8.654256  
    1763A      8.661745  1764A      8.665671  1765A      8.672550  
    1766A      8.676614  1767A      8.678940  1768A      8.691916  
    1769A      8.699362  1770A      8.702870  1771A      8.704550  
    1772A      8.708199  1773A      8.712165  1774A      8.714043  
    1775A      8.716262  1776A      8.732224  1777A      8.740627  
    1778A      8.742142  1779A      8.754664  1780A      8.757605  
    1781A      8.762911  1782A      8.765047  1783A      8.774623  
    1784A      8.782983  1785A      8.798164  1786A      8.801586  
    1787A      8.803274  1788A      8.804864  1789A      8.813635  
    1790A      8.818014  1791A      8.825940  1792A      8.832300  
    1793A      8.839041  1794A      8.847163  1795A      8.857440  
    1796A      8.859070  1797A      8.870887  1798A      8.876469  
    1799A      8.877482  1800A      8.882296  1801A      8.884887  
    1802A      8.895415  1803A      8.896222  1804A      8.898687  
    1805A      8.900266  1806A      8.908150  1807A      8.910096  
    1808A      8.912783  1809A      8.917454  1810A      8.922183  
    1811A      8.925281  1812A      8.934089  1813A      8.943661  
    1814A      8.949357  1815A      8.952108  1816A      8.962067  
    1817A      8.976633  1818A      8.987177  1819A      9.000376  
    1820A      9.007152  1821A      9.013295  1822A      9.024860  
    1823A      9.036367  1824A      9.038887  1825A      9.049931  
    1826A      9.052787  1827A      9.056721  1828A      9.070308  
    1829A      9.073600  1830A      9.079289  1831A      9.087203  
    1832A      9.092860  1833A      9.093395  1834A      9.096957  
    1835A      9.109962  1836A      9.114752  1837A      9.126664  
    1838A      9.134789  1839A      9.139809  1840A      9.157073  
    1841A      9.161494  1842A      9.165412  1843A      9.170915  
    1844A      9.173526  1845A      9.175670  1846A      9.179418  
    1847A      9.185273  1848A      9.188465  1849A      9.200668  
    1850A      9.203699  1851A      9.206362  1852A      9.213102  
    1853A      9.217034  1854A      9.219732  1855A      9.226033  
    1856A      9.240013  1857A      9.243097  1858A      9.255930  
    1859A      9.260865  1860A      9.261957  1861A      9.267677  
    1862A      9.274537  1863A      9.280508  1864A      9.282797  
    1865A      9.289268  1866A      9.298422  1867A      9.300846  
    1868A      9.302440  1869A      9.319814  1870A      9.327670  
    1871A      9.333338  1872A      9.334349  1873A      9.340229  
    1874A      9.347075  1875A      9.352265  1876A      9.353970  
    1877A      9.356004  1878A      9.360425  1879A      9.366500  
    1880A      9.370628  1881A      9.375905  1882A      9.377220  
    1883A      9.378313  1884A      9.382251  1885A      9.383817  
    1886A      9.389236  1887A      9.389622  1888A      9.390931  
    1889A      9.397611  1890A      9.398211  1891A      9.402416  
    1892A      9.405260  1893A      9.406894  1894A      9.410875  
    1895A      9.418033  1896A      9.419650  1897A      9.423411  
    1898A      9.425729  1899A      9.431034  1900A      9.432450  
    1901A      9.436587  1902A      9.446303  1903A      9.448503  
    1904A      9.448758  1905A      9.461021  1906A      9.468499  
    1907A      9.469496  1908A      9.471997  1909A      9.479678  
    1910A      9.489330  1911A      9.497974  1912A      9.501682  
    1913A      9.511403  1914A      9.522096  1915A      9.525577  
    1916A      9.526488  1917A      9.532738  1918A      9.541092  
    1919A      9.560577  1920A      9.577406  1921A      9.579990  
    1922A      9.591548  1923A      9.592313  1924A      9.593343  
    1925A      9.604341  1926A      9.610469  1927A      9.618026  
    1928A      9.618639  1929A      9.625545  1930A      9.633911  
    1931A      9.634390  1932A      9.637255  1933A      9.642304  
    1934A      9.655239  1935A      9.657106  1936A      9.669307  
    1937A      9.672801  1938A      9.675119  1939A      9.691774  
    1940A      9.693311  1941A      9.701480  1942A      9.716933  
    1943A      9.732302  1944A      9.747951  1945A      9.767351  
    1946A      9.774988  1947A      9.784143  1948A      9.789278  
    1949A      9.811743  1950A      9.818446  1951A      9.835050  
    1952A      9.841018  1953A      9.848156  1954A      9.858489  
    1955A      9.861214  1956A      9.864564  1957A      9.876060  
    1958A      9.913260  1959A      9.921591  1960A      9.923416  
    1961A      9.931381  1962A      9.971530  1963A      9.984029  
    1964A     10.028642  1965A     10.052619  1966A     10.058725  
    1967A     10.065786  1968A     10.074672  1969A     10.090844  
    1970A     10.103824  1971A     10.105022  1972A     10.114855  
    1973A     10.123034  1974A     10.130300  1975A     10.147932  
    1976A     10.187866  1977A     10.193376  1978A     10.198543  
    1979A     10.203627  1980A     10.208648  1981A     10.212387  
    1982A     10.231977  1983A     10.233956  1984A     10.239777  
    1985A     10.243272  1986A     10.247819  1987A     10.250853  
    1988A     10.257125  1989A     10.276840  1990A     10.280565  
    1991A     10.285458  1992A     10.291968  1993A     10.298688  
    1994A     10.305001  1995A     10.310242  1996A     10.316120  
    1997A     10.335876  1998A     10.348319  1999A     10.375121  
    2000A     10.385113  2001A     10.389993  2002A     10.394197  
    2003A     10.403745  2004A     10.410566  2005A     10.416690  
    2006A     10.423066  2007A     10.428748  2008A     10.429272  
    2009A     10.435153  2010A     10.445008  2011A     10.456866  
    2012A     10.467952  2013A     10.472981  2014A     10.477283  
    2015A     10.490702  2016A     10.491673  2017A     10.514792  
    2018A     10.518680  2019A     10.527929  2020A     10.533994  
    2021A     10.538312  2022A     10.545710  2023A     10.546196  
    2024A     10.562216  2025A     10.568588  2026A     10.580875  
    2027A     10.592087  2028A     10.596691  2029A     10.605805  
    2030A     10.609662  2031A     10.625105  2032A     10.627448  
    2033A     10.630661  2034A     10.634468  2035A     10.636487  
    2036A     10.646080  2037A     10.658930  2038A     10.661941  
    2039A     10.668513  2040A     10.685757  2041A     10.688748  
    2042A     10.703620  2043A     10.716331  2044A     10.735532  
    2045A     10.742854  2046A     10.744434  2047A     10.765273  
    2048A     10.772354  2049A     10.791039  2050A     10.791633  
    2051A     10.803091  2052A     10.805464  2053A     10.835903  
    2054A     10.846780  2055A     10.857263  2056A     10.857409  
    2057A     10.859230  2058A     10.877711  2059A     10.879618  
    2060A     10.891635  2061A     10.893933  2062A     10.901132  
    2063A     10.925955  2064A     10.931027  2065A     10.953049  
    2066A     10.954853  2067A     10.958169  2068A     10.967644  
    2069A     10.983537  2070A     11.015760  2071A     11.016383  
    2072A     11.028081  2073A     11.032511  2074A     11.053261  
    2075A     11.056084  2076A     11.085700  2077A     11.093799  
    2078A     11.104267  2079A     11.109702  2080A     11.116572  
    2081A     11.135773  2082A     11.148516  2083A     11.159421  
    2084A     11.168235  2085A     11.188082  2086A     11.203334  
    2087A     11.220328  2088A     11.236193  2089A     11.236339  
    2090A     11.268364  2091A     11.281825  2092A     11.289328  
    2093A     11.302354  2094A     11.309093  2095A     11.324745  
    2096A     11.379959  2097A     11.383823  2098A     11.440696  
    2099A     11.442950  2100A     11.458978  2101A     11.479497  
    2102A     11.507695  2103A     11.531152  2104A     11.533445  
    2105A     11.568985  2106A     11.582786  2107A     11.590703  
    2108A     11.595520  2109A     11.603084  2110A     11.622330  
    2111A     11.626340  2112A     11.626722  2113A     11.637474  
    2114A     11.639849  2115A     11.647798  2116A     11.652726  
    2117A     11.653400  2118A     11.657947  2119A     11.658564  
    2120A     11.664633  2121A     11.674969  2122A     11.687256  
    2123A     11.691832  2124A     11.695125  2125A     11.697751  
    2126A     11.702056  2127A     11.703064  2128A     11.714754  
    2129A     11.729763  2130A     11.731723  2131A     11.765137  
    2132A     11.785383  2133A     11.824756  2134A     11.868873  
    2135A     11.885246  2136A     11.886882  2137A     11.951281  
    2138A     11.996236  2139A     11.998248  2140A     12.004358  
    2141A     12.005966  2142A     12.010400  2143A     12.013189  
    2144A     12.026416  2145A     12.030653  2146A     12.042033  
    2147A     12.044018  2148A     12.053223  2149A     12.055720  
    2150A     12.059527  2151A     12.064353  2152A     12.074134  
    2153A     12.078371  2154A     12.105867  2155A     12.107147  
    2156A     12.113058  2157A     12.114771  2158A     12.134904  
    2159A     12.136266  2160A     12.144058  2161A     12.172866  
    2162A     12.180177  2163A     12.183769  2164A     12.192771  
    2165A     12.209792  2166A     12.217732  2167A     12.220535  
    2168A     12.223733  2169A     12.257679  2170A     12.280817  
    2171A     12.282765  2172A     12.318220  2173A     12.324248  
    2174A     12.338352  2175A     12.353264  2176A     12.361590  
    2177A     12.371643  2178A     12.377577  2179A     12.381665  
    2180A     12.388146  2181A     12.401626  2182A     12.407495  
    2183A     12.412936  2184A     12.414386  2185A     12.434087  
    2186A     12.440843  2187A     12.445720  2188A     12.448141  
    2189A     12.452590  2190A     12.489564  2191A     12.506573  
    2192A     12.520949  2193A     12.539328  2194A     12.540111  
    2195A     12.550323  2196A     12.560787  2197A     12.574475  
    2198A     12.602769  2199A     12.647947  2200A     12.661634  
    2201A     12.677083  2202A     12.704274  2203A     12.713625  
    2204A     12.718182  2205A     12.726062  2206A     12.735388  
    2207A     12.746458  2208A     12.747980  2209A     12.750183  
    2210A     12.762260  2211A     12.767440  2212A     12.771364  
    2213A     12.772403  2214A     12.797955  2215A     12.806097  
    2216A     12.808081  2217A     12.831505  2218A     12.836344  
    2219A     12.841593  2220A     12.851290  2221A     12.854364  
    2222A     12.860063  2223A     12.862708  2224A     12.864791  
    2225A     12.892967  2226A     12.898746  2227A     12.905231  
    2228A     12.920277  2229A     12.927652  2230A     12.934157  
    2231A     12.936671  2232A     12.948835  2233A     12.999282  
    2234A     13.002592  2235A     13.028147  2236A     13.223379  
    2237A     13.227292  2238A     13.277371  2239A     13.304949  
    2240A     13.396269  2241A     13.414866  2242A     13.429775  
    2243A     13.432272  2244A     13.442600  2245A     13.477741  
    2246A     13.499099  2247A     13.501999  2248A     13.672095  
    2249A     13.763125  2250A     13.777115  2251A     13.792559  
    2252A     13.805078  2253A     13.821803  2254A     13.860762  
    2255A     13.867086  2256A     13.908931  2257A     13.918617  
    2258A     13.960024  2259A     14.051484  2260A     14.161749  
    2261A     14.173230  2262A     14.190993  2263A     14.203121  
    2264A     14.211446  2265A     14.216847  2266A     14.247926  
    2267A     14.262691  2268A     14.294410  2269A     14.386954  
    2270A     14.391785  2271A     14.410585  2272A     14.421513  
    2273A     14.431206  2274A     14.454107  2275A     14.465346  
    2276A     14.539156  2277A     14.545785  2278A     14.547340  
    2279A     14.601072  2280A     14.639585  2281A     14.682552  
    2282A     14.690952  2283A     14.705013  2284A     14.806049  
    2285A     14.933189  2286A     14.940219  2287A     15.029325  
    2288A     15.061517  2289A     15.071536  2290A     16.735540  
    2291A     16.817019  2292A     16.962659  2293A     24.989323  
    2294A     25.215318  2295A     25.245339  2296A     25.280977  
    2297A     25.332193  2298A     25.358517  2299A     25.402533  
    2300A     26.130809  2301A     26.131275  2302A     26.213774  
    2303A     26.484497  2304A     26.663641  2305A     26.728320  
    2306A     26.778446  2307A     34.548206  2308A     34.682904  
    2309A     34.931853  2310A     34.960780  2311A     42.864865  
    2312A     43.058584  2313A     43.074616  2314A     43.120121  
    2315A     43.161800  2316A     43.274078  2317A     43.315291  
    2318A     44.461609  2319A     44.567615  2320A     44.835332  

    Final Occupation by Irrep:
              A 
    DOCC [   109 ]

  Energy converged.

  @DF-RHF Final Energy: -1512.24376738901674

   => Energetics <=

    Nuclear Repulsion Energy =           2605.3050234228217050
    One-Electron Energy =               -7258.3302919101824955
    Two-Electron Energy =                3140.7815010983445063
    Total Energy =                      -1512.2437673890167389



Properties will be evaluated at   0.000000,   0.000000,   0.000000 Bohr

Properties computed using the SCF density matrix

  Nuclear Dipole Moment: (a.u.)
     X:     3.6080      Y:     8.5823      Z:    -2.3649

  Electronic Dipole Moment: (a.u.)
     X:    -2.9306      Y:    -7.9140      Z:     3.6117

  Dipole Moment: (a.u.)
     X:     0.6774      Y:     0.6683      Z:     1.2468     Total:     1.5684

  Dipole Moment: (Debye)
     X:     1.7217      Y:     1.6986      Z:     3.1690     Total:     3.9865


*** tstop() called on hex15 at Tue Mar  6 01:42:05 2018
Module time:
	user time   =    4378.33 seconds =      72.97 minutes
	system time =     780.87 seconds =      13.01 minutes
	total time  =       4280 seconds =      71.33 minutes
Total time:
	user time   =    4378.33 seconds =      72.97 minutes
	system time =     780.87 seconds =      13.01 minutes
	total time  =       4280 seconds =      71.33 minutes

*** Psi4 exiting successfully. Buy a developer a beer!
