
    -----------------------------------------------------------------------
          Psi4: An Open-Source Ab Initio Electronic Structure Package
                               Psi4 1.2a1.dev875 

                         Git: Rev {symm_JK} 0ea9481 dirty


    R. M. Parrish, L. A. Burns, D. G. A. Smith, A. C. Simmonett,
    A. E. DePrince III, E. G. Hohenstein, U. Bozkaya, A. Yu. Sokolov,
    R. Di Remigio, R. M. Richard, J. F. Gonthier, A. M. James,
    H. R. McAlexander, A. Kumar, M. Saitow, X. Wang, B. P. Pritchard,
    P. Verma, H. F. Schaefer III, K. Patkowski, R. A. King, E. F. Valeev,
    F. A. Evangelista, J. M. Turney, T. D. Crawford, and C. D. Sherrill,
    J. Chem. Theory Comput. 13(7) pp 3185--3197 (2017).
    (doi: 10.1021/acs.jctc.7b00174)

    -----------------------------------------------------------------------


    Psi4 started on: Thursday, 08 March 2018 10:47AM

    Process ID:  29364
    PSIDATADIR: /theoryfs2/ds/schieber/Gits/mspsi4/objdir3/stage/usr/local/psi4/share/psi4
    Memory:     500.0 MiB
    Threads:    6
    
  ==> Input File <==

--------------------------------------------------------------------------
memory 60 Gb

molecule protein_81 {
0 1
 N   18.626  30.444   6.627
 C   17.853  29.516   5.837
 C   16.945  30.292   4.886
 O   15.843  30.678   5.237
 C   17.047  28.642   6.811
 C   16.316  27.513   6.146
 O   16.236  27.458   4.905
 O   15.762  26.696   6.882
 N    4.567  24.042   8.795
 C    4.886  22.777   8.145
 C    6.265  22.720   7.521
 O    6.723  23.689   6.900
 N   17.407  27.054  -1.437
 C   17.227  26.751  -0.026
 C   18.555  26.446   0.653
 O   19.003  25.309   0.692
 C   16.258  25.572   0.084
 C   15.759  25.336   1.493
 O   16.399  25.780   2.453
 O   14.731  24.675   1.645
 N   19.106  26.199   3.688
 C   18.957  25.372   4.876
 C   18.845  23.903   4.520
 O   18.660  23.054   5.417
 N   20.536  20.559   2.918
 C   21.779  19.912   2.496
 C   21.693  19.374   1.107
 O   22.642  19.502   0.361
 C   22.169  18.827   3.447
 C   22.272  19.337   4.844
 O   22.714  20.482   5.029
 O   21.836  18.647   5.778
 N   15.750  18.102  -3.440
 C   14.628  17.162  -3.514
 C   13.618  17.726  -4.436
 O   13.169  18.861  -4.263
 C   13.781  17.005  -2.245
 C   13.297  15.592  -2.184
 C   14.518  17.455  -1.007
 H   18.180  30.990   7.295
 H   18.510  28.835   5.249
 H   16.336  29.276   7.377
 H   17.778  28.186   7.516
 H   15.845  26.702   7.843
 H    4.436  24.871   8.195
 H    4.744  21.930   8.802
 H    4.143  22.632   7.335
 H   17.860  26.421  -2.023
 H   16.724  27.595   0.500
 H   16.724  24.663  -0.337
 H   15.363  25.845  -0.519
 H   16.737  25.171   3.109
 H   18.314  26.771   3.377
 H   18.015  25.631   5.391
 H   19.792  25.567   5.577
 H   19.976  20.073   3.597
 H   22.602  20.664   2.537
 H   23.175  18.459   3.144
 H   21.465  17.966   3.392
 H   21.492  17.752   5.634
 H   15.541  19.065  -3.172
 H   15.011  16.180  -3.836
 H   12.886  17.674  -2.203
 H   14.115  14.872  -2.046
 H   12.706  15.323  -3.086
 H   12.624  15.478  -1.307
 H   15.405  16.799  -0.936
 H   13.886  17.316  -0.103
 H   14.813  18.522  -1.068
 H   19.646  30.419   6.619
 H   17.295  30.415   3.850
 H    4.454  24.117   9.806
 H    6.887  21.864   7.822
 H   16.947  27.858  -1.864
 H   19.060  27.284   1.155
 H   20.034  26.347   3.290
 H   18.824  23.654   3.449
 H   20.197  21.395   2.443
 H   20.727  18.956   0.786
 H   16.715  17.829  -3.624
 H   13.269  17.060  -5.239
}

set {
basis aug-cc-pvqz
scf_type df
guess sad
DF_SCF_TYPE DFJK
}

energy('HF')
--------------------------------------------------------------------------

  Memory set to  55.879 GiB by Python driver.

*** tstart() called on hex15
*** at Thu Mar  8 10:47:33 2018

   => Loading Basis Set <=

    Name: AUG-CC-PVQZ
    Role: ORBITAL
    Keyword: BASIS
    atoms 1, 9, 13, 21, 25, 33                                             entry N          line   359 file /theoryfs2/ds/schieber/Gits/mspsi4/objdir3/stage/usr/local/psi4/share/psi4/basis/aug-cc-pvqz.gbs 
    atoms 2-3, 5-6, 10-11, 14-15, 17-18, 22-23, 26-27, 29-30, 34-35, 37-39 entry C          line   299 file /theoryfs2/ds/schieber/Gits/mspsi4/objdir3/stage/usr/local/psi4/share/psi4/basis/aug-cc-pvqz.gbs 
    atoms 4, 7-8, 12, 16, 19-20, 24, 28, 31-32, 36                         entry O          line   419 file /theoryfs2/ds/schieber/Gits/mspsi4/objdir3/stage/usr/local/psi4/share/psi4/basis/aug-cc-pvqz.gbs 
    atoms 40-81                                                            entry H          line    36 file /theoryfs2/ds/schieber/Gits/mspsi4/objdir3/stage/usr/local/psi4/share/psi4/basis/aug-cc-pvqz.gbs 


         ---------------------------------------------------------
                                   SCF
            by Justin Turney, Rob Parrish, Andy Simmonett
                             and Daniel Smith
                              RHF Reference
                        6 Threads,  57220 MiB Core
         ---------------------------------------------------------

  ==> Geometry <==

    Molecular point group: c1
    Full point group: C1

    Geometry (in Angstrom), charge = 0, multiplicity = 1:

       Center              X                  Y                   Z               Mass       
    ------------   -----------------  -----------------  -----------------  -----------------
           N          2.162085654028     7.131922671342     3.830998506539    14.003074004780
           C          1.389085654028     6.203922671342     3.040998506539    12.000000000000
           C          0.481085654028     6.979922671342     2.089998506539    12.000000000000
           O         -0.620914345972     7.365922671342     2.440998506539    15.994914619560
           C          0.583085654028     5.329922671342     4.014998506539    12.000000000000
           C         -0.147914345972     4.200922671342     3.349998506539    12.000000000000
           O         -0.227914345972     4.145922671342     2.108998506539    15.994914619560
           O         -0.701914345972     3.383922671342     4.085998506539    15.994914619560
           N        -11.896914345972     0.729922671342     5.998998506539    14.003074004780
           C        -11.577914345972    -0.535077328658     5.348998506539    12.000000000000
           C        -10.198914345972    -0.592077328658     4.724998506539    12.000000000000
           O         -9.740914345972     0.376922671342     4.103998506539    15.994914619560
           N          0.943085654028     3.741922671342    -4.233001493461    14.003074004780
           C          0.763085654028     3.438922671342    -2.822001493461    12.000000000000
           C          2.091085654028     3.133922671342    -2.143001493461    12.000000000000
           O          2.539085654028     1.996922671342    -2.104001493461    15.994914619560
           C         -0.205914345972     2.259922671342    -2.712001493461    12.000000000000
           C         -0.704914345972     2.023922671342    -1.303001493461    12.000000000000
           O         -0.064914345972     2.467922671342    -0.343001493461    15.994914619560
           O         -1.732914345972     1.362922671342    -1.151001493461    15.994914619560
           N          2.642085654028     2.886922671342     0.891998506539    14.003074004780
           C          2.493085654028     2.059922671342     2.079998506539    12.000000000000
           C          2.381085654028     0.590922671342     1.723998506539    12.000000000000
           O          2.196085654028    -0.258077328658     2.620998506539    15.994914619560
           N          4.072085654028    -2.753077328658     0.121998506539    14.003074004780
           C          5.315085654028    -3.400077328658    -0.300001493461    12.000000000000
           C          5.229085654028    -3.938077328658    -1.689001493461    12.000000000000
           O          6.178085654028    -3.810077328658    -2.435001493461    15.994914619560
           C          5.705085654028    -4.485077328658     0.650998506539    12.000000000000
           C          5.808085654028    -3.975077328658     2.047998506539    12.000000000000
           O          6.250085654028    -2.830077328658     2.232998506539    15.994914619560
           O          5.372085654028    -4.665077328658     2.981998506539    15.994914619560
           N         -0.713914345972    -5.210077328658    -6.236001493461    14.003074004780
           C         -1.835914345972    -6.150077328658    -6.310001493461    12.000000000000
           C         -2.845914345972    -5.586077328658    -7.232001493461    12.000000000000
           O         -3.294914345972    -4.451077328658    -7.059001493461    15.994914619560
           C         -2.682914345972    -6.307077328658    -5.041001493461    12.000000000000
           C         -3.166914345972    -7.720077328658    -4.980001493461    12.000000000000
           C         -1.945914345972    -5.857077328658    -3.803001493461    12.000000000000
           H          1.716085654028     7.677922671342     4.498998506539     1.007825032070
           H          2.046085654028     5.522922671342     2.452998506539     1.007825032070
           H         -0.127914345972     5.963922671342     4.580998506539     1.007825032070
           H          1.314085654028     4.873922671342     4.719998506539     1.007825032070
           H         -0.618914345972     3.389922671342     5.046998506539     1.007825032070
           H        -12.027914345972     1.558922671342     5.398998506539     1.007825032070
           H        -11.719914345972    -1.382077328658     6.005998506539     1.007825032070
           H        -12.320914345972    -0.680077328658     4.538998506539     1.007825032070
           H          1.396085654028     3.108922671342    -4.819001493461     1.007825032070
           H          0.260085654028     4.282922671342    -2.296001493461     1.007825032070
           H          0.260085654028     1.350922671342    -3.133001493461     1.007825032070
           H         -1.100914345972     2.532922671342    -3.315001493461     1.007825032070
           H          0.273085654028     1.858922671342     0.312998506539     1.007825032070
           H          1.850085654028     3.458922671342     0.580998506539     1.007825032070
           H          1.551085654028     2.318922671342     2.594998506539     1.007825032070
           H          3.328085654028     2.254922671342     2.780998506539     1.007825032070
           H          3.512085654028    -3.239077328658     0.800998506539     1.007825032070
           H          6.138085654028    -2.648077328658    -0.259001493461     1.007825032070
           H          6.711085654028    -4.853077328658     0.347998506539     1.007825032070
           H          5.001085654028    -5.346077328658     0.595998506539     1.007825032070
           H          5.028085654028    -5.560077328658     2.837998506539     1.007825032070
           H         -0.922914345972    -4.247077328658    -5.968001493461     1.007825032070
           H         -1.452914345972    -7.132077328658    -6.632001493461     1.007825032070
           H         -3.577914345972    -5.638077328658    -4.999001493461     1.007825032070
           H         -2.348914345972    -8.440077328658    -4.842001493461     1.007825032070
           H         -3.757914345972    -7.989077328658    -5.882001493461     1.007825032070
           H         -3.839914345972    -7.834077328658    -4.103001493461     1.007825032070
           H         -1.058914345972    -6.513077328658    -3.732001493461     1.007825032070
           H         -2.577914345972    -5.996077328658    -2.899001493461     1.007825032070
           H         -1.650914345972    -4.790077328658    -3.864001493461     1.007825032070
           H          3.182085654028     7.106922671342     3.822998506539     1.007825032070
           H          0.831085654028     7.102922671342     1.053998506539     1.007825032070
           H        -12.009914345972     0.804922671342     7.009998506539     1.007825032070
           H         -9.576914345972    -1.448077328658     5.025998506539     1.007825032070
           H          0.483085654028     4.545922671342    -4.660001493461     1.007825032070
           H          2.596085654028     3.971922671342    -1.641001493461     1.007825032070
           H          3.570085654028     3.034922671342     0.493998506539     1.007825032070
           H          2.360085654028     0.341922671342     0.652998506539     1.007825032070
           H          3.733085654028    -1.917077328658    -0.353001493461     1.007825032070
           H          4.263085654028    -4.356077328658    -2.010001493461     1.007825032070
           H          0.251085654028    -5.483077328658    -6.420001493461     1.007825032070
           H         -3.194914345972    -6.252077328658    -8.035001493461     1.007825032070

  Running in c1 symmetry.

  Rotational constants: A =      0.00108  B =      0.00092  C =      0.00065 [cm^-1]
  Rotational constants: A =     32.29472  B =     27.57633  C =     19.58821 [MHz]
  Nuclear repulsion = 3942.786577156039129

  Charge       = 0
  Multiplicity = 1
  Electrons    = 306
  Nalpha       = 153
  Nbeta        = 153

  ==> Algorithm <==

  SCF Algorithm Type is DF.
  DIIS enabled.
  MOM disabled.
  Fractional occupation disabled.
  Guess Type is SAD.
  Energy threshold   = 1.00e-06
  Density threshold  = 1.00e-06
  Integral threshold = 0.00e+00

  ==> Primary Basis <==

  Basis Set: AUG-CC-PVQZ
    Blend: AUG-CC-PVQZ
    Number of shells: 1368
    Number of basis function: 5052
    Number of Cartesian functions: 6405
    Spherical Harmonics?: true
    Max angular momentum: 4

   => Loading Basis Set <=

    Name: (AUG-CC-PVQZ AUX)
    Role: JKFIT
    Keyword: DF_BASIS_SCF
    atoms 1, 9, 13, 21, 25, 33                                             entry N          line   248 file /theoryfs2/ds/schieber/Gits/mspsi4/objdir3/stage/usr/local/psi4/share/psi4/basis/aug-cc-pvqz-jkfit.gbs 
    atoms 2-3, 5-6, 10-11, 14-15, 17-18, 22-23, 26-27, 29-30, 34-35, 37-39 entry C          line   178 file /theoryfs2/ds/schieber/Gits/mspsi4/objdir3/stage/usr/local/psi4/share/psi4/basis/aug-cc-pvqz-jkfit.gbs 
    atoms 4, 7-8, 12, 16, 19-20, 24, 28, 31-32, 36                         entry O          line   318 file /theoryfs2/ds/schieber/Gits/mspsi4/objdir3/stage/usr/local/psi4/share/psi4/basis/aug-cc-pvqz-jkfit.gbs 
    atoms 40-81                                                            entry H          line    70 file /theoryfs2/ds/schieber/Gits/mspsi4/objdir3/stage/usr/local/psi4/share/psi4/basis/aug-cc-pvqz-jkfit.gbs 

  ==> Pre-Iterations <==

   -------------------------------------------------------
    Irrep   Nso     Nmo     Nalpha   Nbeta   Ndocc  Nsocc
   -------------------------------------------------------
     A       5052    5052       0       0       0       0
   -------------------------------------------------------
    Total    5052    5052     153     153     153       0
   -------------------------------------------------------

  ==> Integral Setup <==

  ==> DFJK: Density-Fitted J/K Matrices <==

    J tasked:                  Yes
    K tasked:                  Yes
    wK tasked:                  No
    OpenMP threads:              6
    Integrals threads:           6
    Memory (MB):             42915
    Algorithm:                Disk
    Integral Cache:           NONE
    Schwarz Cutoff:          1E-12
    Fitting Condition:       1E-12

   => Auxiliary Basis Set <=

  Basis Set: (AUG-CC-PVQZ AUX)
    Blend: AUG-CC-PVQZ-JKFIT
    Number of shells: 2082
    Number of basis function: 8730
    Number of Cartesian functions: 11964
    Spherical Harmonics?: true
    Max angular momentum: 5

  Minimum eigenvalue in the overlap matrix is 2.6736365554E-07.
  Using Symmetric Orthogonalization.

  SCF Guess: Superposition of Atomic Densities via on-the-fly atomic UHF.

  ==> Iterations <==

                           Total Energy        Delta E     RMS |[F,P]|

   @DF-RHF iter   0: -2059.05787029339263   -2.05906e+03   5.76171e-03 
   @DF-RHF iter   1: -2043.95420150582004    1.51037e+01   7.60798e-04 
   @DF-RHF iter   2: -2044.89269893183928   -9.38497e-01   5.42060e-04 DIIS
   @DF-RHF iter   3: -2045.34930715385144   -4.56608e-01   1.16335e-04 DIIS
   @DF-RHF iter   4: -2045.39686660717393   -4.75595e-02   3.94705e-05 DIIS
   @DF-RHF iter   5: -2045.40347155706536   -6.60495e-03   1.58869e-05 DIIS
   @DF-RHF iter   6: -2045.40495455727364   -1.48300e-03   7.33667e-06 DIIS
   @DF-RHF iter   7: -2045.40532640885249   -3.71852e-04   3.25824e-06 DIIS
   @DF-RHF iter   8: -2045.40540069871190   -7.42899e-05   1.48172e-06 DIIS
   @DF-RHF iter   9: -2045.40541887937479   -1.81807e-05   6.51016e-07 DIIS
   @DF-RHF iter  10: -2045.40542356962351   -4.69025e-06   3.11309e-07 DIIS
   @DF-RHF iter  11: -2045.40542474252743   -1.17290e-06   1.34316e-07 DIIS
   @DF-RHF iter  12: -2045.40542496391618   -2.21389e-07   5.87166e-08 DIIS

  ==> Post-Iterations <==

    Orbital Energies (a.u.)
    -----------------------

    Doubly Occupied:                                                      

       1A    -20.642503     2A    -20.635906     3A    -20.600517  
       4A    -20.566421     5A    -20.558716     6A    -20.558400  
       7A    -20.556944     8A    -20.554098     9A    -20.544342  
      10A    -20.537436    11A    -20.519869    12A    -20.513282  
      13A    -15.557877    14A    -15.550993    15A    -15.547242  
      16A    -15.543585    17A    -15.543378    18A    -15.536106  
      19A    -11.395012    20A    -11.383007    21A    -11.364373  
      22A    -11.343653    23A    -11.336575    24A    -11.335324  
      25A    -11.330713    26A    -11.327423    27A    -11.324611  
      28A    -11.295449    29A    -11.289043    30A    -11.280307  
      31A    -11.276492    32A    -11.273109    33A    -11.269332  
      34A    -11.265885    35A    -11.263275    36A    -11.236802  
      37A    -11.223461    38A    -11.221691    39A    -11.210863  
      40A     -1.526719    41A     -1.513444    42A     -1.497962  
      43A     -1.396685    44A     -1.393327    45A     -1.390947  
      46A     -1.372293    47A     -1.369657    48A     -1.367331  
      49A     -1.356310    50A     -1.340611    51A     -1.331357  
      52A     -1.213746    53A     -1.201708    54A     -1.194417  
      55A     -1.184624    56A     -1.180544    57A     -1.168923  
      58A     -1.078622    59A     -1.056550    60A     -1.055055  
      61A     -1.042641    62A     -0.966923    63A     -0.964238  
      64A     -0.962993    65A     -0.949400    66A     -0.941366  
      67A     -0.936520    68A     -0.928620    69A     -0.905890  
      70A     -0.891807    71A     -0.874292    72A     -0.809773  
      73A     -0.805944    74A     -0.802408    75A     -0.800050  
      76A     -0.794992    77A     -0.794277    78A     -0.759730  
      79A     -0.747450    80A     -0.734864    81A     -0.731504  
      82A     -0.718212    83A     -0.713171    84A     -0.707546  
      85A     -0.705459    86A     -0.698981    87A     -0.694560  
      88A     -0.692750    89A     -0.687592    90A     -0.684911  
      91A     -0.680833    92A     -0.667377    93A     -0.665789  
      94A     -0.661751    95A     -0.659201    96A     -0.658598  
      97A     -0.652982    98A     -0.648892    99A     -0.648878  
     100A     -0.643250   101A     -0.635901   102A     -0.635453  
     103A     -0.630736   104A     -0.629646   105A     -0.628981  
     106A     -0.625965   107A     -0.623053   108A     -0.621968  
     109A     -0.611452   110A     -0.609187   111A     -0.600943  
     112A     -0.590026   113A     -0.577031   114A     -0.573025  
     115A     -0.568526   116A     -0.566771   117A     -0.562196  
     118A     -0.558029   119A     -0.551244   120A     -0.549021  
     121A     -0.547043   122A     -0.534720   123A     -0.531288  
     124A     -0.529747   125A     -0.525670   126A     -0.520551  
     127A     -0.519914   128A     -0.515023   129A     -0.505769  
     130A     -0.502649   131A     -0.489451   132A     -0.487949  
     133A     -0.485283   134A     -0.475347   135A     -0.473708  
     136A     -0.461816   137A     -0.460673   138A     -0.455952  
     139A     -0.447754   140A     -0.444923   141A     -0.444293  
     142A     -0.443332   143A     -0.442006   144A     -0.440124  
     145A     -0.434338   146A     -0.434192   147A     -0.428750  
     148A     -0.386132   149A     -0.381793   150A     -0.377482  
     151A     -0.376968   152A     -0.369289   153A     -0.359155  

    Virtual:                                                              

     154A      0.012618   155A      0.013307   156A      0.018596  
     157A      0.022479   158A      0.024072   159A      0.025272  
     160A      0.030496   161A      0.030946   162A      0.031604  
     163A      0.034153   164A      0.035214   165A      0.037264  
     166A      0.038289   167A      0.039817   168A      0.040657  
     169A      0.042892   170A      0.044680   171A      0.046318  
     172A      0.047676   173A      0.049635   174A      0.050937  
     175A      0.053314   176A      0.054739   177A      0.056488  
     178A      0.057980   179A      0.060128   180A      0.061408  
     181A      0.062836   182A      0.064661   183A      0.066383  
     184A      0.068097   185A      0.069865   186A      0.070739  
     187A      0.071391   188A      0.073868   189A      0.074307  
     190A      0.076394   191A      0.078225   192A      0.079870  
     193A      0.083433   194A      0.083621   195A      0.084408  
     196A      0.085999   197A      0.086872   198A      0.087705  
     199A      0.088273   200A      0.090486   201A      0.091630  
     202A      0.092706   203A      0.093989   204A      0.096445  
     205A      0.097285   206A      0.097607   207A      0.100225  
     208A      0.101208   209A      0.101895   210A      0.103198  
     211A      0.104275   212A      0.104384   213A      0.106758  
     214A      0.107789   215A      0.108424   216A      0.110112  
     217A      0.111229   218A      0.112160   219A      0.113110  
     220A      0.114059   221A      0.115104   222A      0.115677  
     223A      0.116928   224A      0.118062   225A      0.118750  
     226A      0.120288   227A      0.120577   228A      0.121744  
     229A      0.122563   230A      0.123616   231A      0.125696  
     232A      0.125774   233A      0.126843   234A      0.128423  
     235A      0.128974   236A      0.129878   237A      0.130629  
     238A      0.131480   239A      0.132386   240A      0.133325  
     241A      0.134529   242A      0.136354   243A      0.136821  
     244A      0.139240   245A      0.140406   246A      0.140499  
     247A      0.141197   248A      0.143116   249A      0.144353  
     250A      0.145374   251A      0.147095   252A      0.147821  
     253A      0.147920   254A      0.150914   255A      0.151512  
     256A      0.152288   257A      0.152900   258A      0.154657  
     259A      0.156653   260A      0.156859   261A      0.157872  
     262A      0.158802   263A      0.160362   264A      0.161935  
     265A      0.163563   266A      0.163920   267A      0.164975  
     268A      0.165415   269A      0.167153   270A      0.167720  
     271A      0.168166   272A      0.169753   273A      0.171566  
     274A      0.173246   275A      0.173747   276A      0.174544  
     277A      0.176914   278A      0.177778   279A      0.179858  
     280A      0.180106   281A      0.181695   282A      0.182803  
     283A      0.184381   284A      0.185539   285A      0.188608  
     286A      0.188823   287A      0.189243   288A      0.190240  
     289A      0.190889   290A      0.192824   291A      0.194493  
     292A      0.196300   293A      0.196665   294A      0.198563  
     295A      0.200698   296A      0.202090   297A      0.203337  
     298A      0.204507   299A      0.204734   300A      0.206512  
     301A      0.207139   302A      0.208736   303A      0.210610  
     304A      0.212330   305A      0.213430   306A      0.214795  
     307A      0.215324   308A      0.215992   309A      0.219275  
     310A      0.220275   311A      0.220971   312A      0.221770  
     313A      0.224235   314A      0.224799   315A      0.226735  
     316A      0.228198   317A      0.229533   318A      0.230657  
     319A      0.231734   320A      0.232300   321A      0.234384  
     322A      0.234890   323A      0.235880   324A      0.236999  
     325A      0.238812   326A      0.239420   327A      0.240954  
     328A      0.242099   329A      0.243371   330A      0.244505  
     331A      0.245313   332A      0.246614   333A      0.247419  
     334A      0.248413   335A      0.250077   336A      0.250361  
     337A      0.252343   338A      0.253534   339A      0.254006  
     340A      0.255635   341A      0.256743   342A      0.257019  
     343A      0.258375   344A      0.260772   345A      0.261566  
     346A      0.262202   347A      0.263418   348A      0.264010  
     349A      0.265092   350A      0.266573   351A      0.267206  
     352A      0.268558   353A      0.269362   354A      0.269639  
     355A      0.270845   356A      0.271989   357A      0.273410  
     358A      0.275672   359A      0.275927   360A      0.276723  
     361A      0.278183   362A      0.278439   363A      0.279049  
     364A      0.279982   365A      0.283411   366A      0.283766  
     367A      0.285107   368A      0.286347   369A      0.286789  
     370A      0.288309   371A      0.288939   372A      0.289792  
     373A      0.291123   374A      0.291937   375A      0.293319  
     376A      0.294171   377A      0.295160   378A      0.296164  
     379A      0.296465   380A      0.298113   381A      0.299009  
     382A      0.299173   383A      0.299307   384A      0.301211  
     385A      0.302727   386A      0.302985   387A      0.303290  
     388A      0.304301   389A      0.305441   390A      0.307449  
     391A      0.308407   392A      0.310149   393A      0.310385  
     394A      0.311171   395A      0.312131   396A      0.312868  
     397A      0.314089   398A      0.316107   399A      0.316373  
     400A      0.317110   401A      0.319279   402A      0.319786  
     403A      0.320665   404A      0.322255   405A      0.322420  
     406A      0.323645   407A      0.324813   408A      0.325806  
     409A      0.326714   410A      0.327103   411A      0.329616  
     412A      0.330055   413A      0.330172   414A      0.330551  
     415A      0.331277   416A      0.332056   417A      0.333276  
     418A      0.334984   419A      0.335862   420A      0.336190  
     421A      0.337269   422A      0.339014   423A      0.339563  
     424A      0.340231   425A      0.341864   426A      0.344401  
     427A      0.345277   428A      0.346190   429A      0.346904  
     430A      0.349111   431A      0.349618   432A      0.352706  
     433A      0.353374   434A      0.354109   435A      0.355014  
     436A      0.356466   437A      0.357180   438A      0.358568  
     439A      0.359309   440A      0.359793   441A      0.361089  
     442A      0.361703   443A      0.363809   444A      0.365185  
     445A      0.366204   446A      0.367361   447A      0.369060  
     448A      0.369974   449A      0.370150   450A      0.370790  
     451A      0.372030   452A      0.372834   453A      0.373933  
     454A      0.375584   455A      0.376864   456A      0.377528  
     457A      0.378769   458A      0.380248   459A      0.380830  
     460A      0.381603   461A      0.383532   462A      0.385286  
     463A      0.385830   464A      0.387473   465A      0.388267  
     466A      0.389466   467A      0.390368   468A      0.391342  
     469A      0.391648   470A      0.392037   471A      0.394484  
     472A      0.395100   473A      0.395439   474A      0.396692  
     475A      0.397758   476A      0.398355   477A      0.399119  
     478A      0.400587   479A      0.400863   480A      0.402577  
     481A      0.403117   482A      0.404019   483A      0.405617  
     484A      0.406241   485A      0.406878   486A      0.407244  
     487A      0.409095   488A      0.410186   489A      0.412629  
     490A      0.413372   491A      0.414567   492A      0.415291  
     493A      0.416538   494A      0.417663   495A      0.418366  
     496A      0.419701   497A      0.420740   498A      0.422280  
     499A      0.422529   500A      0.423878   501A      0.424844  
     502A      0.425230   503A      0.426533   504A      0.429249  
     505A      0.429938   506A      0.430598   507A      0.430941  
     508A      0.432984   509A      0.433556   510A      0.434282  
     511A      0.434888   512A      0.435384   513A      0.436819  
     514A      0.437531   515A      0.438340   516A      0.439569  
     517A      0.440342   518A      0.441522   519A      0.443178  
     520A      0.443375   521A      0.444227   522A      0.445121  
     523A      0.446920   524A      0.447246   525A      0.447901  
     526A      0.450061   527A      0.450996   528A      0.452967  
     529A      0.453420   530A      0.454087   531A      0.454740  
     532A      0.456395   533A      0.456932   534A      0.458564  
     535A      0.459099   536A      0.460763   537A      0.461533  
     538A      0.464298   539A      0.464939   540A      0.465411  
     541A      0.465958   542A      0.467468   543A      0.468177  
     544A      0.468870   545A      0.469453   546A      0.471570  
     547A      0.472003   548A      0.472690   549A      0.474691  
     550A      0.475239   551A      0.477057   552A      0.478394  
     553A      0.480578   554A      0.481292   555A      0.481766  
     556A      0.483058   557A      0.485016   558A      0.485611  
     559A      0.487259   560A      0.487356   561A      0.488320  
     562A      0.489611   563A      0.492186   564A      0.493193  
     565A      0.493456   566A      0.494896   567A      0.496575  
     568A      0.496596   569A      0.498114   570A      0.498402  
     571A      0.500221   572A      0.501588   573A      0.501833  
     574A      0.503791   575A      0.504795   576A      0.505821  
     577A      0.506865   578A      0.507357   579A      0.508000  
     580A      0.508093   581A      0.509405   582A      0.511384  
     583A      0.511731   584A      0.513879   585A      0.517358  
     586A      0.518135   587A      0.518674   588A      0.519933  
     589A      0.521621   590A      0.522670   591A      0.523787  
     592A      0.525088   593A      0.525913   594A      0.527201  
     595A      0.528177   596A      0.529681   597A      0.530122  
     598A      0.531815   599A      0.532136   600A      0.532341  
     601A      0.532817   602A      0.534378   603A      0.536370  
     604A      0.537482   605A      0.538149   606A      0.539818  
     607A      0.542530   608A      0.543223   609A      0.543916  
     610A      0.544789   611A      0.546284   612A      0.547546  
     613A      0.548530   614A      0.549223   615A      0.549366  
     616A      0.552084   617A      0.552823   618A      0.554210  
     619A      0.555585   620A      0.556393   621A      0.557708  
     622A      0.557932   623A      0.558887   624A      0.561067  
     625A      0.562430   626A      0.562973   627A      0.565271  
     628A      0.566325   629A      0.567307   630A      0.568087  
     631A      0.568496   632A      0.571618   633A      0.572911  
     634A      0.573592   635A      0.575290   636A      0.576037  
     637A      0.578745   638A      0.579358   639A      0.580358  
     640A      0.584550   641A      0.585566   642A      0.586707  
     643A      0.588855   644A      0.589045   645A      0.590908  
     646A      0.591274   647A      0.591755   648A      0.593127  
     649A      0.594520   650A      0.595014   651A      0.597437  
     652A      0.598863   653A      0.599820   654A      0.601993  
     655A      0.602716   656A      0.603584   657A      0.604968  
     658A      0.606235   659A      0.608105   660A      0.610698  
     661A      0.611752   662A      0.612754   663A      0.614531  
     664A      0.615697   665A      0.618573   666A      0.619242  
     667A      0.621502   668A      0.623228   669A      0.623584  
     670A      0.624713   671A      0.625677   672A      0.626366  
     673A      0.626993   674A      0.628216   675A      0.630924  
     676A      0.632715   677A      0.634152   678A      0.635859  
     679A      0.636504   680A      0.636608   681A      0.637692  
     682A      0.639160   683A      0.640555   684A      0.642243  
     685A      0.643955   686A      0.644118   687A      0.646209  
     688A      0.646805   689A      0.648116   690A      0.649510  
     691A      0.651187   692A      0.651918   693A      0.652441  
     694A      0.654451   695A      0.654985   696A      0.657636  
     697A      0.659008   698A      0.660146   699A      0.661501  
     700A      0.661691   701A      0.663968   702A      0.664502  
     703A      0.664956   704A      0.666108   705A      0.667498  
     706A      0.668614   707A      0.669132   708A      0.670268  
     709A      0.671678   710A      0.672401   711A      0.673067  
     712A      0.674704   713A      0.676766   714A      0.677969  
     715A      0.678367   716A      0.680363   717A      0.681568  
     718A      0.683332   719A      0.683960   720A      0.685001  
     721A      0.685476   722A      0.686901   723A      0.688253  
     724A      0.689364   725A      0.690523   726A      0.690797  
     727A      0.693527   728A      0.695508   729A      0.696307  
     730A      0.697152   731A      0.697721   732A      0.698094  
     733A      0.700267   734A      0.700852   735A      0.702240  
     736A      0.703974   737A      0.704676   738A      0.706692  
     739A      0.706949   740A      0.707531   741A      0.708757  
     742A      0.709766   743A      0.710332   744A      0.713094  
     745A      0.713944   746A      0.715715   747A      0.716885  
     748A      0.717793   749A      0.717931   750A      0.721066  
     751A      0.721942   752A      0.723696   753A      0.723747  
     754A      0.724865   755A      0.725584   756A      0.727064  
     757A      0.727942   758A      0.729350   759A      0.730532  
     760A      0.730940   761A      0.732543   762A      0.733004  
     763A      0.734408   764A      0.735776   765A      0.736975  
     766A      0.738639   767A      0.739253   768A      0.739683  
     769A      0.740569   770A      0.741524   771A      0.741952  
     772A      0.743812   773A      0.744534   774A      0.745837  
     775A      0.747811   776A      0.748942   777A      0.750475  
     778A      0.751450   779A      0.751688   780A      0.752283  
     781A      0.754813   782A      0.756559   783A      0.757122  
     784A      0.759319   785A      0.759855   786A      0.760692  
     787A      0.762292   788A      0.763524   789A      0.765647  
     790A      0.766739   791A      0.767856   792A      0.768785  
     793A      0.770030   794A      0.770360   795A      0.771682  
     796A      0.773295   797A      0.773622   798A      0.774664  
     799A      0.775024   800A      0.776511   801A      0.777570  
     802A      0.777954   803A      0.779582   804A      0.781002  
     805A      0.783089   806A      0.784397   807A      0.784611  
     808A      0.785888   809A      0.787045   810A      0.787988  
     811A      0.788531   812A      0.788715   813A      0.789291  
     814A      0.792288   815A      0.793385   816A      0.793735  
     817A      0.795261   818A      0.796537   819A      0.798944  
     820A      0.799290   821A      0.799926   822A      0.801591  
     823A      0.802436   824A      0.804002   825A      0.805125  
     826A      0.806702   827A      0.807263   828A      0.807901  
     829A      0.809391   830A      0.811719   831A      0.811837  
     832A      0.813908   833A      0.814479   834A      0.816079  
     835A      0.817019   836A      0.818095   837A      0.819654  
     838A      0.821657   839A      0.822013   840A      0.822714  
     841A      0.824472   842A      0.825150   843A      0.825965  
     844A      0.826594   845A      0.827561   846A      0.828551  
     847A      0.830110   848A      0.831623   849A      0.833461  
     850A      0.834066   851A      0.835138   852A      0.836776  
     853A      0.837017   854A      0.838771   855A      0.841108  
     856A      0.842063   857A      0.844565   858A      0.845638  
     859A      0.845998   860A      0.846879   861A      0.847788  
     862A      0.849031   863A      0.850944   864A      0.851813  
     865A      0.852467   866A      0.853577   867A      0.856603  
     868A      0.858368   869A      0.858639   870A      0.859913  
     871A      0.861326   872A      0.862890   873A      0.864120  
     874A      0.865303   875A      0.867018   876A      0.867832  
     877A      0.868493   878A      0.869755   879A      0.869861  
     880A      0.871190   881A      0.871681   882A      0.873500  
     883A      0.874654   884A      0.875810   885A      0.876790  
     886A      0.877632   887A      0.878627   888A      0.881530  
     889A      0.881659   890A      0.882739   891A      0.883711  
     892A      0.884772   893A      0.886665   894A      0.887082  
     895A      0.887985   896A      0.889898   897A      0.892478  
     898A      0.892978   899A      0.894039   900A      0.894888  
     901A      0.895542   902A      0.897317   903A      0.898707  
     904A      0.899116   905A      0.900163   906A      0.901371  
     907A      0.903369   908A      0.904848   909A      0.906314  
     910A      0.906629   911A      0.908175   912A      0.911722  
     913A      0.913333   914A      0.913970   915A      0.914711  
     916A      0.916376   917A      0.918242   918A      0.919159  
     919A      0.920267   920A      0.920920   921A      0.922266  
     922A      0.924024   923A      0.924266   924A      0.925054  
     925A      0.926562   926A      0.927763   927A      0.927896  
     928A      0.928314   929A      0.929635   930A      0.931896  
     931A      0.933773   932A      0.934388   933A      0.935376  
     934A      0.935648   935A      0.937950   936A      0.938265  
     937A      0.939522   938A      0.940737   939A      0.942616  
     940A      0.944211   941A      0.945708   942A      0.946957  
     943A      0.947497   944A      0.948395   945A      0.950294  
     946A      0.952334   947A      0.953417   948A      0.955801  
     949A      0.957038   950A      0.958237   951A      0.958346  
     952A      0.958767   953A      0.959615   954A      0.961473  
     955A      0.962800   956A      0.963118   957A      0.965061  
     958A      0.966640   959A      0.966906   960A      0.969243  
     961A      0.970411   962A      0.970571   963A      0.972020  
     964A      0.972419   965A      0.974946   966A      0.976261  
     967A      0.978078   968A      0.978381   969A      0.979252  
     970A      0.981548   971A      0.983152   972A      0.983411  
     973A      0.983571   974A      0.986353   975A      0.986855  
     976A      0.987852   977A      0.989888   978A      0.990701  
     979A      0.991593   980A      0.994596   981A      0.997487  
     982A      0.998343   983A      0.998682   984A      1.001076  
     985A      1.001493   986A      1.001751   987A      1.003476  
     988A      1.005490   989A      1.006697   990A      1.007879  
     991A      1.009713   992A      1.010647   993A      1.012062  
     994A      1.012918   995A      1.014734   996A      1.016726  
     997A      1.017984   998A      1.019159   999A      1.020527  
    1000A      1.021348  1001A      1.021939  1002A      1.022711  
    1003A      1.023777  1004A      1.025455  1005A      1.025755  
    1006A      1.028083  1007A      1.029525  1008A      1.031744  
    1009A      1.032728  1010A      1.033903  1011A      1.034979  
    1012A      1.036004  1013A      1.038448  1014A      1.039880  
    1015A      1.040067  1016A      1.040765  1017A      1.042481  
    1018A      1.043875  1019A      1.044203  1020A      1.045840  
    1021A      1.048611  1022A      1.050408  1023A      1.053364  
    1024A      1.053773  1025A      1.053957  1026A      1.055214  
    1027A      1.055797  1028A      1.057552  1029A      1.059772  
    1030A      1.061622  1031A      1.062868  1032A      1.064512  
    1033A      1.065716  1034A      1.066294  1035A      1.067976  
    1036A      1.070588  1037A      1.071942  1038A      1.073685  
    1039A      1.075787  1040A      1.076273  1041A      1.076689  
    1042A      1.077993  1043A      1.080502  1044A      1.081840  
    1045A      1.082967  1046A      1.084027  1047A      1.086490  
    1048A      1.086509  1049A      1.087487  1050A      1.089936  
    1051A      1.090888  1052A      1.091534  1053A      1.093217  
    1054A      1.094153  1055A      1.094948  1056A      1.096913  
    1057A      1.097316  1058A      1.098670  1059A      1.101788  
    1060A      1.103274  1061A      1.104468  1062A      1.106703  
    1063A      1.108151  1064A      1.110150  1065A      1.111111  
    1066A      1.112452  1067A      1.113890  1068A      1.115630  
    1069A      1.117806  1070A      1.119569  1071A      1.120578  
    1072A      1.120671  1073A      1.123289  1074A      1.123762  
    1075A      1.125089  1076A      1.125976  1077A      1.126676  
    1078A      1.129260  1079A      1.129387  1080A      1.130250  
    1081A      1.130922  1082A      1.131559  1083A      1.132363  
    1084A      1.132985  1085A      1.134384  1086A      1.137039  
    1087A      1.138828  1088A      1.140891  1089A      1.141454  
    1090A      1.142968  1091A      1.144638  1092A      1.145205  
    1093A      1.146248  1094A      1.148293  1095A      1.148772  
    1096A      1.150686  1097A      1.150855  1098A      1.151650  
    1099A      1.154289  1100A      1.155209  1101A      1.156109  
    1102A      1.157989  1103A      1.160552  1104A      1.161796  
    1105A      1.162560  1106A      1.164052  1107A      1.166476  
    1108A      1.167602  1109A      1.169170  1110A      1.170495  
    1111A      1.171512  1112A      1.172274  1113A      1.173248  
    1114A      1.176173  1115A      1.178664  1116A      1.179815  
    1117A      1.180571  1118A      1.181372  1119A      1.182914  
    1120A      1.184683  1121A      1.187340  1122A      1.188098  
    1123A      1.190183  1124A      1.190926  1125A      1.191801  
    1126A      1.193047  1127A      1.195192  1128A      1.196972  
    1129A      1.197419  1130A      1.199998  1131A      1.201092  
    1132A      1.201898  1133A      1.203763  1134A      1.204583  
    1135A      1.205766  1136A      1.207374  1137A      1.207781  
    1138A      1.208895  1139A      1.209776  1140A      1.212229  
    1141A      1.212662  1142A      1.214518  1143A      1.215600  
    1144A      1.217572  1145A      1.218750  1146A      1.220103  
    1147A      1.223313  1148A      1.224338  1149A      1.226319  
    1150A      1.227259  1151A      1.229764  1152A      1.231568  
    1153A      1.232519  1154A      1.232687  1155A      1.233404  
    1156A      1.234296  1157A      1.235012  1158A      1.236811  
    1159A      1.239244  1160A      1.240337  1161A      1.241102  
    1162A      1.242766  1163A      1.245207  1164A      1.245643  
    1165A      1.246484  1166A      1.246943  1167A      1.248107  
    1168A      1.248425  1169A      1.250233  1170A      1.252145  
    1171A      1.255121  1172A      1.256099  1173A      1.258393  
    1174A      1.259172  1175A      1.260312  1176A      1.262398  
    1177A      1.264742  1178A      1.266622  1179A      1.267009  
    1180A      1.269057  1181A      1.269601  1182A      1.270255  
    1183A      1.271806  1184A      1.273418  1185A      1.273967  
    1186A      1.274760  1187A      1.276318  1188A      1.278941  
    1189A      1.279549  1190A      1.281337  1191A      1.282559  
    1192A      1.283913  1193A      1.284270  1194A      1.284706  
    1195A      1.286906  1196A      1.290046  1197A      1.291068  
    1198A      1.291741  1199A      1.294652  1200A      1.295097  
    1201A      1.296731  1202A      1.296997  1203A      1.297343  
    1204A      1.298350  1205A      1.301095  1206A      1.303742  
    1207A      1.304506  1208A      1.306474  1209A      1.307704  
    1210A      1.311256  1211A      1.312456  1212A      1.312950  
    1213A      1.314516  1214A      1.316142  1215A      1.317527  
    1216A      1.319892  1217A      1.320470  1218A      1.323389  
    1219A      1.324666  1220A      1.325629  1221A      1.326488  
    1222A      1.327720  1223A      1.329633  1224A      1.332269  
    1225A      1.333125  1226A      1.334276  1227A      1.338025  
    1228A      1.338740  1229A      1.341723  1230A      1.342499  
    1231A      1.345526  1232A      1.346095  1233A      1.348626  
    1234A      1.350210  1235A      1.354090  1236A      1.354573  
    1237A      1.355271  1238A      1.358258  1239A      1.359018  
    1240A      1.360276  1241A      1.362819  1242A      1.363759  
    1243A      1.365858  1244A      1.366773  1245A      1.368379  
    1246A      1.370191  1247A      1.370771  1248A      1.371826  
    1249A      1.376176  1250A      1.376777  1251A      1.378160  
    1252A      1.380548  1253A      1.381310  1254A      1.382179  
    1255A      1.385702  1256A      1.388651  1257A      1.389935  
    1258A      1.390702  1259A      1.392437  1260A      1.394231  
    1261A      1.395731  1262A      1.397414  1263A      1.398407  
    1264A      1.399131  1265A      1.401285  1266A      1.402314  
    1267A      1.403429  1268A      1.403922  1269A      1.409217  
    1270A      1.409865  1271A      1.410348  1272A      1.412250  
    1273A      1.412974  1274A      1.415688  1275A      1.417535  
    1276A      1.417703  1277A      1.419308  1278A      1.421280  
    1279A      1.422058  1280A      1.423613  1281A      1.424964  
    1282A      1.425338  1283A      1.426231  1284A      1.428450  
    1285A      1.431714  1286A      1.432271  1287A      1.432883  
    1288A      1.436664  1289A      1.436926  1290A      1.440002  
    1291A      1.441869  1292A      1.442973  1293A      1.443940  
    1294A      1.446046  1295A      1.449693  1296A      1.451770  
    1297A      1.453155  1298A      1.453397  1299A      1.455344  
    1300A      1.456950  1301A      1.459259  1302A      1.460424  
    1303A      1.460868  1304A      1.463093  1305A      1.463188  
    1306A      1.465568  1307A      1.467607  1308A      1.468386  
    1309A      1.471531  1310A      1.473339  1311A      1.473896  
    1312A      1.477577  1313A      1.478500  1314A      1.480758  
    1315A      1.484107  1316A      1.485076  1317A      1.486327  
    1318A      1.486955  1319A      1.487065  1320A      1.489388  
    1321A      1.492676  1322A      1.492701  1323A      1.494178  
    1324A      1.495483  1325A      1.498379  1326A      1.498927  
    1327A      1.500213  1328A      1.503466  1329A      1.505143  
    1330A      1.506496  1331A      1.507472  1332A      1.508868  
    1333A      1.511137  1334A      1.516113  1335A      1.518084  
    1336A      1.518484  1337A      1.521057  1338A      1.523743  
    1339A      1.524685  1340A      1.525226  1341A      1.527834  
    1342A      1.530305  1343A      1.531267  1344A      1.532548  
    1345A      1.533026  1346A      1.535984  1347A      1.536463  
    1348A      1.538432  1349A      1.540900  1350A      1.541893  
    1351A      1.543836  1352A      1.546351  1353A      1.547850  
    1354A      1.549625  1355A      1.550799  1356A      1.551998  
    1357A      1.553413  1358A      1.554652  1359A      1.556046  
    1360A      1.558587  1361A      1.560161  1362A      1.561633  
    1363A      1.562264  1364A      1.563743  1365A      1.566436  
    1366A      1.567151  1367A      1.570518  1368A      1.571003  
    1369A      1.571605  1370A      1.571728  1371A      1.574876  
    1372A      1.575098  1373A      1.576319  1374A      1.578654  
    1375A      1.580251  1376A      1.582257  1377A      1.583573  
    1378A      1.585831  1379A      1.588504  1380A      1.590663  
    1381A      1.591427  1382A      1.594179  1383A      1.594931  
    1384A      1.595464  1385A      1.596849  1386A      1.598610  
    1387A      1.600104  1388A      1.602247  1389A      1.602831  
    1390A      1.604155  1391A      1.606971  1392A      1.608247  
    1393A      1.608601  1394A      1.609116  1395A      1.611842  
    1396A      1.614596  1397A      1.615108  1398A      1.617988  
    1399A      1.619673  1400A      1.621351  1401A      1.622087  
    1402A      1.625706  1403A      1.627098  1404A      1.627700  
    1405A      1.631130  1406A      1.632511  1407A      1.634351  
    1408A      1.635699  1409A      1.637028  1410A      1.638398  
    1411A      1.641562  1412A      1.642617  1413A      1.644616  
    1414A      1.645785  1415A      1.646670  1416A      1.647139  
    1417A      1.649582  1418A      1.650353  1419A      1.652716  
    1420A      1.654673  1421A      1.657962  1422A      1.659980  
    1423A      1.661098  1424A      1.662864  1425A      1.666101  
    1426A      1.667557  1427A      1.669880  1428A      1.671026  
    1429A      1.672887  1430A      1.673825  1431A      1.675247  
    1432A      1.678107  1433A      1.678617  1434A      1.679863  
    1435A      1.681697  1436A      1.682570  1437A      1.682923  
    1438A      1.684265  1439A      1.687146  1440A      1.688171  
    1441A      1.690034  1442A      1.692156  1443A      1.692389  
    1444A      1.694502  1445A      1.696037  1446A      1.699589  
    1447A      1.700393  1448A      1.702168  1449A      1.704110  
    1450A      1.704906  1451A      1.706209  1452A      1.707646  
    1453A      1.709761  1454A      1.711184  1455A      1.714243  
    1456A      1.715590  1457A      1.719200  1458A      1.720107  
    1459A      1.720646  1460A      1.722018  1461A      1.722991  
    1462A      1.725917  1463A      1.728504  1464A      1.729401  
    1465A      1.730597  1466A      1.731540  1467A      1.732039  
    1468A      1.733586  1469A      1.734442  1470A      1.737465  
    1471A      1.739512  1472A      1.739962  1473A      1.740737  
    1474A      1.742090  1475A      1.746927  1476A      1.747557  
    1477A      1.751019  1478A      1.751405  1479A      1.753896  
    1480A      1.755377  1481A      1.756598  1482A      1.758093  
    1483A      1.761758  1484A      1.762372  1485A      1.763590  
    1486A      1.764849  1487A      1.765601  1488A      1.768791  
    1489A      1.769528  1490A      1.770830  1491A      1.773872  
    1492A      1.774411  1493A      1.776562  1494A      1.777917  
    1495A      1.779584  1496A      1.780614  1497A      1.781285  
    1498A      1.784093  1499A      1.786611  1500A      1.787433  
    1501A      1.789010  1502A      1.790393  1503A      1.792905  
    1504A      1.793534  1505A      1.795544  1506A      1.796135  
    1507A      1.797515  1508A      1.798505  1509A      1.801923  
    1510A      1.804713  1511A      1.806370  1512A      1.807321  
    1513A      1.807737  1514A      1.808722  1515A      1.811150  
    1516A      1.812575  1517A      1.813502  1518A      1.815765  
    1519A      1.817011  1520A      1.818942  1521A      1.821338  
    1522A      1.823086  1523A      1.824012  1524A      1.826308  
    1525A      1.826963  1526A      1.828811  1527A      1.829254  
    1528A      1.831118  1529A      1.832075  1530A      1.834080  
    1531A      1.836069  1532A      1.838550  1533A      1.839284  
    1534A      1.840518  1535A      1.841488  1536A      1.842382  
    1537A      1.842859  1538A      1.847141  1539A      1.848076  
    1540A      1.849067  1541A      1.849401  1542A      1.851052  
    1543A      1.853053  1544A      1.854489  1545A      1.856248  
    1546A      1.858007  1547A      1.860003  1548A      1.860789  
    1549A      1.861350  1550A      1.862266  1551A      1.864860  
    1552A      1.865002  1553A      1.868233  1554A      1.868841  
    1555A      1.870330  1556A      1.873765  1557A      1.875183  
    1558A      1.875458  1559A      1.877708  1560A      1.877938  
    1561A      1.879669  1562A      1.882363  1563A      1.883780  
    1564A      1.884730  1565A      1.885491  1566A      1.888467  
    1567A      1.891062  1568A      1.892771  1569A      1.893354  
    1570A      1.894395  1571A      1.895278  1572A      1.896148  
    1573A      1.897709  1574A      1.898229  1575A      1.898843  
    1576A      1.901725  1577A      1.901895  1578A      1.904095  
    1579A      1.904350  1580A      1.908697  1581A      1.909187  
    1582A      1.914202  1583A      1.915701  1584A      1.916151  
    1585A      1.917836  1586A      1.918091  1587A      1.919720  
    1588A      1.921608  1589A      1.922051  1590A      1.923487  
    1591A      1.924954  1592A      1.926015  1593A      1.926385  
    1594A      1.929179  1595A      1.931077  1596A      1.933395  
    1597A      1.934216  1598A      1.934582  1599A      1.935717  
    1600A      1.938611  1601A      1.942037  1602A      1.944144  
    1603A      1.944789  1604A      1.947162  1605A      1.948648  
    1606A      1.949647  1607A      1.950662  1608A      1.952293  
    1609A      1.953186  1610A      1.955691  1611A      1.955961  
    1612A      1.957385  1613A      1.958157  1614A      1.960215  
    1615A      1.962635  1616A      1.965156  1617A      1.965393  
    1618A      1.967678  1619A      1.969784  1620A      1.970212  
    1621A      1.971427  1622A      1.973022  1623A      1.973969  
    1624A      1.976013  1625A      1.977384  1626A      1.979372  
    1627A      1.979835  1628A      1.981567  1629A      1.981942  
    1630A      1.983372  1631A      1.984238  1632A      1.985445  
    1633A      1.988974  1634A      1.990612  1635A      1.991988  
    1636A      1.993506  1637A      1.994890  1638A      1.995363  
    1639A      1.996142  1640A      1.997353  1641A      1.999453  
    1642A      2.000928  1643A      2.001810  1644A      2.002616  
    1645A      2.004692  1646A      2.005558  1647A      2.007816  
    1648A      2.009602  1649A      2.009784  1650A      2.011696  
    1651A      2.013479  1652A      2.015865  1653A      2.019368  
    1654A      2.021742  1655A      2.022054  1656A      2.022630  
    1657A      2.023203  1658A      2.024401  1659A      2.025784  
    1660A      2.027557  1661A      2.027851  1662A      2.028661  
    1663A      2.031221  1664A      2.033503  1665A      2.035552  
    1666A      2.037580  1667A      2.038307  1668A      2.040079  
    1669A      2.041903  1670A      2.044034  1671A      2.046169  
    1672A      2.046984  1673A      2.047202  1674A      2.050033  
    1675A      2.052483  1676A      2.053223  1677A      2.054353  
    1678A      2.056345  1679A      2.057786  1680A      2.058787  
    1681A      2.061483  1682A      2.062349  1683A      2.063633  
    1684A      2.066009  1685A      2.067295  1686A      2.068833  
    1687A      2.073805  1688A      2.074087  1689A      2.074588  
    1690A      2.075422  1691A      2.076210  1692A      2.077463  
    1693A      2.078611  1694A      2.078827  1695A      2.080367  
    1696A      2.082944  1697A      2.085250  1698A      2.086897  
    1699A      2.087896  1700A      2.089199  1701A      2.090288  
    1702A      2.090570  1703A      2.090968  1704A      2.092659  
    1705A      2.094546  1706A      2.094791  1707A      2.096894  
    1708A      2.099154  1709A      2.101110  1710A      2.101718  
    1711A      2.103035  1712A      2.103826  1713A      2.105106  
    1714A      2.108818  1715A      2.110381  1716A      2.111205  
    1717A      2.112421  1718A      2.114956  1719A      2.116336  
    1720A      2.117085  1721A      2.117568  1722A      2.117706  
    1723A      2.120249  1724A      2.121671  1725A      2.122794  
    1726A      2.125799  1727A      2.127579  1728A      2.128205  
    1729A      2.128959  1730A      2.129772  1731A      2.131008  
    1732A      2.134733  1733A      2.136333  1734A      2.137746  
    1735A      2.139058  1736A      2.141688  1737A      2.142963  
    1738A      2.143053  1739A      2.144027  1740A      2.146230  
    1741A      2.148194  1742A      2.149524  1743A      2.149890  
    1744A      2.150087  1745A      2.152265  1746A      2.154089  
    1747A      2.154655  1748A      2.156385  1749A      2.157527  
    1750A      2.157979  1751A      2.160616  1752A      2.162874  
    1753A      2.164497  1754A      2.167474  1755A      2.169551  
    1756A      2.170823  1757A      2.173179  1758A      2.174148  
    1759A      2.174607  1760A      2.176152  1761A      2.177605  
    1762A      2.179921  1763A      2.180416  1764A      2.180817  
    1765A      2.182159  1766A      2.184280  1767A      2.184747  
    1768A      2.185133  1769A      2.186530  1770A      2.188070  
    1771A      2.188353  1772A      2.189073  1773A      2.193257  
    1774A      2.195092  1775A      2.197104  1776A      2.198860  
    1777A      2.198898  1778A      2.199720  1779A      2.203039  
    1780A      2.203361  1781A      2.204273  1782A      2.205417  
    1783A      2.208432  1784A      2.209932  1785A      2.210351  
    1786A      2.212563  1787A      2.213198  1788A      2.213370  
    1789A      2.215429  1790A      2.217340  1791A      2.217876  
    1792A      2.218440  1793A      2.218766  1794A      2.219616  
    1795A      2.220886  1796A      2.222961  1797A      2.225368  
    1798A      2.227178  1799A      2.227701  1800A      2.230068  
    1801A      2.230950  1802A      2.231609  1803A      2.233454  
    1804A      2.234146  1805A      2.235679  1806A      2.238077  
    1807A      2.239412  1808A      2.240203  1809A      2.240459  
    1810A      2.242043  1811A      2.243106  1812A      2.243780  
    1813A      2.245233  1814A      2.248797  1815A      2.250464  
    1816A      2.251053  1817A      2.253564  1818A      2.253942  
    1819A      2.255984  1820A      2.256235  1821A      2.258342  
    1822A      2.260433  1823A      2.261296  1824A      2.262640  
    1825A      2.263112  1826A      2.264714  1827A      2.266910  
    1828A      2.267258  1829A      2.267624  1830A      2.268311  
    1831A      2.269776  1832A      2.270125  1833A      2.270471  
    1834A      2.272658  1835A      2.273663  1836A      2.274621  
    1837A      2.275053  1838A      2.276683  1839A      2.278726  
    1840A      2.281092  1841A      2.281362  1842A      2.281798  
    1843A      2.282778  1844A      2.284439  1845A      2.286880  
    1846A      2.288866  1847A      2.289615  1848A      2.293902  
    1849A      2.295586  1850A      2.296991  1851A      2.298660  
    1852A      2.299365  1853A      2.301752  1854A      2.302535  
    1855A      2.304264  1856A      2.305315  1857A      2.307204  
    1858A      2.309689  1859A      2.310303  1860A      2.311045  
    1861A      2.313354  1862A      2.314274  1863A      2.316469  
    1864A      2.317229  1865A      2.317740  1866A      2.320757  
    1867A      2.322908  1868A      2.323437  1869A      2.324234  
    1870A      2.326244  1871A      2.326408  1872A      2.329734  
    1873A      2.331058  1874A      2.334314  1875A      2.335320  
    1876A      2.335780  1877A      2.336983  1878A      2.337899  
    1879A      2.339054  1880A      2.341668  1881A      2.342461  
    1882A      2.344186  1883A      2.346078  1884A      2.347704  
    1885A      2.350180  1886A      2.352846  1887A      2.354589  
    1888A      2.355992  1889A      2.358224  1890A      2.359504  
    1891A      2.360739  1892A      2.361231  1893A      2.363893  
    1894A      2.367091  1895A      2.367351  1896A      2.368381  
    1897A      2.369367  1898A      2.370414  1899A      2.371035  
    1900A      2.371166  1901A      2.373407  1902A      2.374697  
    1903A      2.375452  1904A      2.379162  1905A      2.379728  
    1906A      2.381028  1907A      2.381957  1908A      2.382607  
    1909A      2.385185  1910A      2.386567  1911A      2.388453  
    1912A      2.389965  1913A      2.390998  1914A      2.391910  
    1915A      2.392916  1916A      2.394759  1917A      2.397299  
    1918A      2.398153  1919A      2.399879  1920A      2.405661  
    1921A      2.408121  1922A      2.409328  1923A      2.410609  
    1924A      2.412586  1925A      2.413739  1926A      2.416665  
    1927A      2.417037  1928A      2.418081  1929A      2.419444  
    1930A      2.420959  1931A      2.422149  1932A      2.423248  
    1933A      2.423792  1934A      2.424996  1935A      2.426796  
    1936A      2.428485  1937A      2.429510  1938A      2.431202  
    1939A      2.431854  1940A      2.433005  1941A      2.435137  
    1942A      2.437125  1943A      2.439152  1944A      2.440884  
    1945A      2.442018  1946A      2.443873  1947A      2.446902  
    1948A      2.448530  1949A      2.451063  1950A      2.452893  
    1951A      2.454539  1952A      2.457043  1953A      2.457273  
    1954A      2.459617  1955A      2.460653  1956A      2.462445  
    1957A      2.464531  1958A      2.466013  1959A      2.466328  
    1960A      2.469856  1961A      2.470625  1962A      2.473190  
    1963A      2.474662  1964A      2.475597  1965A      2.477804  
    1966A      2.479495  1967A      2.479768  1968A      2.481475  
    1969A      2.484065  1970A      2.484951  1971A      2.486311  
    1972A      2.488593  1973A      2.489483  1974A      2.490801  
    1975A      2.493817  1976A      2.496040  1977A      2.496342  
    1978A      2.497199  1979A      2.497642  1980A      2.499642  
    1981A      2.500140  1982A      2.503131  1983A      2.506575  
    1984A      2.509053  1985A      2.511991  1986A      2.512301  
    1987A      2.512787  1988A      2.514341  1989A      2.515971  
    1990A      2.517216  1991A      2.517720  1992A      2.522394  
    1993A      2.523584  1994A      2.524777  1995A      2.526429  
    1996A      2.529389  1997A      2.530245  1998A      2.532973  
    1999A      2.534251  2000A      2.536867  2001A      2.537445  
    2002A      2.539641  2003A      2.540941  2004A      2.542759  
    2005A      2.544667  2006A      2.545014  2007A      2.548529  
    2008A      2.549751  2009A      2.551603  2010A      2.553396  
    2011A      2.555101  2012A      2.557640  2013A      2.560356  
    2014A      2.560710  2015A      2.562362  2016A      2.562917  
    2017A      2.564927  2018A      2.566972  2019A      2.569639  
    2020A      2.571213  2021A      2.572862  2022A      2.576121  
    2023A      2.577043  2024A      2.578453  2025A      2.578821  
    2026A      2.579462  2027A      2.583096  2028A      2.584316  
    2029A      2.586968  2030A      2.589491  2031A      2.591411  
    2032A      2.592259  2033A      2.595554  2034A      2.596817  
    2035A      2.599069  2036A      2.599652  2037A      2.602500  
    2038A      2.605813  2039A      2.608245  2040A      2.608748  
    2041A      2.610119  2042A      2.612033  2043A      2.612758  
    2044A      2.616347  2045A      2.616900  2046A      2.619491  
    2047A      2.622371  2048A      2.625579  2049A      2.628299  
    2050A      2.628990  2051A      2.630131  2052A      2.635653  
    2053A      2.636592  2054A      2.639304  2055A      2.640108  
    2056A      2.641985  2057A      2.643213  2058A      2.644042  
    2059A      2.644105  2060A      2.645234  2061A      2.649047  
    2062A      2.650491  2063A      2.651022  2064A      2.652844  
    2065A      2.654318  2066A      2.659046  2067A      2.659928  
    2068A      2.660564  2069A      2.663299  2070A      2.665812  
    2071A      2.666637  2072A      2.670016  2073A      2.670514  
    2074A      2.673835  2075A      2.675224  2076A      2.677443  
    2077A      2.679761  2078A      2.681058  2079A      2.684608  
    2080A      2.686039  2081A      2.689632  2082A      2.691794  
    2083A      2.692800  2084A      2.693402  2085A      2.695073  
    2086A      2.695670  2087A      2.697321  2088A      2.698450  
    2089A      2.699978  2090A      2.703146  2091A      2.705524  
    2092A      2.709162  2093A      2.710609  2094A      2.712637  
    2095A      2.713176  2096A      2.715590  2097A      2.720124  
    2098A      2.720747  2099A      2.721977  2100A      2.726254  
    2101A      2.728366  2102A      2.730153  2103A      2.731047  
    2104A      2.734990  2105A      2.735691  2106A      2.736782  
    2107A      2.738177  2108A      2.739992  2109A      2.743476  
    2110A      2.744163  2111A      2.750123  2112A      2.750499  
    2113A      2.754251  2114A      2.755536  2115A      2.758215  
    2116A      2.760935  2117A      2.761221  2118A      2.763128  
    2119A      2.764925  2120A      2.767464  2121A      2.769755  
    2122A      2.770145  2123A      2.770188  2124A      2.772787  
    2125A      2.773885  2126A      2.777168  2127A      2.779175  
    2128A      2.780810  2129A      2.784100  2130A      2.787096  
    2131A      2.789875  2132A      2.791178  2133A      2.792525  
    2134A      2.796236  2135A      2.798214  2136A      2.799421  
    2137A      2.799950  2138A      2.801650  2139A      2.804858  
    2140A      2.805882  2141A      2.808752  2142A      2.810058  
    2143A      2.813737  2144A      2.814112  2145A      2.819719  
    2146A      2.821022  2147A      2.821680  2148A      2.822786  
    2149A      2.824054  2150A      2.825116  2151A      2.827696  
    2152A      2.828936  2153A      2.830910  2154A      2.834653  
    2155A      2.836512  2156A      2.838681  2157A      2.839015  
    2158A      2.841468  2159A      2.843508  2160A      2.845666  
    2161A      2.848464  2162A      2.850794  2163A      2.851957  
    2164A      2.854084  2165A      2.854508  2166A      2.856595  
    2167A      2.857926  2168A      2.858932  2169A      2.860301  
    2170A      2.863685  2171A      2.869523  2172A      2.870706  
    2173A      2.875590  2174A      2.876431  2175A      2.876596  
    2176A      2.876963  2177A      2.880240  2178A      2.882172  
    2179A      2.882845  2180A      2.884095  2181A      2.887717  
    2182A      2.889669  2183A      2.892714  2184A      2.896074  
    2185A      2.897458  2186A      2.898011  2187A      2.899600  
    2188A      2.900004  2189A      2.902869  2190A      2.905569  
    2191A      2.909477  2192A      2.912945  2193A      2.914051  
    2194A      2.915390  2195A      2.915467  2196A      2.917785  
    2197A      2.918614  2198A      2.919663  2199A      2.923159  
    2200A      2.923712  2201A      2.925271  2202A      2.926082  
    2203A      2.927606  2204A      2.931897  2205A      2.934558  
    2206A      2.935009  2207A      2.935311  2208A      2.938013  
    2209A      2.939886  2210A      2.945037  2211A      2.945961  
    2212A      2.948549  2213A      2.949032  2214A      2.950006  
    2215A      2.952875  2216A      2.954181  2217A      2.955027  
    2218A      2.960049  2219A      2.960680  2220A      2.960945  
    2221A      2.962748  2222A      2.965166  2223A      2.970337  
    2224A      2.971179  2225A      2.972383  2226A      2.973006  
    2227A      2.978308  2228A      2.980059  2229A      2.981529  
    2230A      2.985292  2231A      2.988702  2232A      2.989763  
    2233A      2.991036  2234A      2.995867  2235A      2.997312  
    2236A      2.998344  2237A      2.999428  2238A      3.001633  
    2239A      3.003503  2240A      3.004646  2241A      3.006971  
    2242A      3.008115  2243A      3.008613  2244A      3.010796  
    2245A      3.012581  2246A      3.017318  2247A      3.018190  
    2248A      3.022679  2249A      3.024898  2250A      3.026346  
    2251A      3.029080  2252A      3.030302  2253A      3.032225  
    2254A      3.032480  2255A      3.033319  2256A      3.037256  
    2257A      3.037610  2258A      3.039678  2259A      3.042883  
    2260A      3.043647  2261A      3.045382  2262A      3.046618  
    2263A      3.049285  2264A      3.050815  2265A      3.052338  
    2266A      3.053081  2267A      3.054745  2268A      3.056798  
    2269A      3.058646  2270A      3.059881  2271A      3.061413  
    2272A      3.062033  2273A      3.062818  2274A      3.064152  
    2275A      3.065700  2276A      3.066803  2277A      3.070375  
    2278A      3.072911  2279A      3.076819  2280A      3.078960  
    2281A      3.080744  2282A      3.081614  2283A      3.082844  
    2284A      3.084660  2285A      3.087203  2286A      3.088066  
    2287A      3.090064  2288A      3.091172  2289A      3.093918  
    2290A      3.095033  2291A      3.096123  2292A      3.097968  
    2293A      3.099828  2294A      3.102073  2295A      3.102601  
    2296A      3.106547  2297A      3.106897  2298A      3.108223  
    2299A      3.112089  2300A      3.115074  2301A      3.115999  
    2302A      3.117892  2303A      3.118739  2304A      3.121833  
    2305A      3.122683  2306A      3.124359  2307A      3.128423  
    2308A      3.129025  2309A      3.132079  2310A      3.133072  
    2311A      3.134472  2312A      3.138138  2313A      3.141120  
    2314A      3.145722  2315A      3.147062  2316A      3.148152  
    2317A      3.148949  2318A      3.151124  2319A      3.151617  
    2320A      3.152114  2321A      3.154447  2322A      3.155960  
    2323A      3.158214  2324A      3.160026  2325A      3.161495  
    2326A      3.163403  2327A      3.166938  2328A      3.171316  
    2329A      3.173655  2330A      3.175600  2331A      3.177039  
    2332A      3.178550  2333A      3.181429  2334A      3.182079  
    2335A      3.184642  2336A      3.185434  2337A      3.188654  
    2338A      3.190660  2339A      3.194663  2340A      3.195070  
    2341A      3.196403  2342A      3.197277  2343A      3.201401  
    2344A      3.202463  2345A      3.204720  2346A      3.205386  
    2347A      3.206184  2348A      3.206982  2349A      3.211827  
    2350A      3.213662  2351A      3.214502  2352A      3.215913  
    2353A      3.219876  2354A      3.220913  2355A      3.224222  
    2356A      3.226941  2357A      3.228317  2358A      3.229686  
    2359A      3.231271  2360A      3.233029  2361A      3.234976  
    2362A      3.237427  2363A      3.242121  2364A      3.243756  
    2365A      3.244241  2366A      3.246743  2367A      3.251010  
    2368A      3.252211  2369A      3.255586  2370A      3.257952  
    2371A      3.261490  2372A      3.264720  2373A      3.266440  
    2374A      3.266835  2375A      3.268667  2376A      3.269854  
    2377A      3.271017  2378A      3.272932  2379A      3.276621  
    2380A      3.277069  2381A      3.280665  2382A      3.281566  
    2383A      3.289134  2384A      3.291165  2385A      3.292287  
    2386A      3.293879  2387A      3.295138  2388A      3.298709  
    2389A      3.300732  2390A      3.302191  2391A      3.302644  
    2392A      3.306920  2393A      3.309794  2394A      3.311803  
    2395A      3.313423  2396A      3.314337  2397A      3.317286  
    2398A      3.320804  2399A      3.321361  2400A      3.322347  
    2401A      3.323937  2402A      3.325031  2403A      3.328754  
    2404A      3.330417  2405A      3.331806  2406A      3.332823  
    2407A      3.335364  2408A      3.336685  2409A      3.339070  
    2410A      3.341343  2411A      3.343410  2412A      3.345725  
    2413A      3.349255  2414A      3.351140  2415A      3.355855  
    2416A      3.357201  2417A      3.357855  2418A      3.361380  
    2419A      3.362787  2420A      3.363604  2421A      3.365275  
    2422A      3.367293  2423A      3.370710  2424A      3.371212  
    2425A      3.375074  2426A      3.377289  2427A      3.378067  
    2428A      3.379698  2429A      3.382492  2430A      3.384216  
    2431A      3.387896  2432A      3.390815  2433A      3.393044  
    2434A      3.395459  2435A      3.396523  2436A      3.397422  
    2437A      3.400823  2438A      3.402411  2439A      3.404487  
    2440A      3.406354  2441A      3.407867  2442A      3.414861  
    2443A      3.419585  2444A      3.421118  2445A      3.421810  
    2446A      3.423160  2447A      3.425369  2448A      3.428061  
    2449A      3.429136  2450A      3.431349  2451A      3.433728  
    2452A      3.433774  2453A      3.436285  2454A      3.438283  
    2455A      3.439636  2456A      3.441927  2457A      3.447268  
    2458A      3.448775  2459A      3.450368  2460A      3.453011  
    2461A      3.454899  2462A      3.457202  2463A      3.459118  
    2464A      3.459641  2465A      3.462982  2466A      3.467270  
    2467A      3.469895  2468A      3.470038  2469A      3.473720  
    2470A      3.474012  2471A      3.478089  2472A      3.481650  
    2473A      3.484675  2474A      3.486924  2475A      3.489619  
    2476A      3.492231  2477A      3.498316  2478A      3.500153  
    2479A      3.501098  2480A      3.502545  2481A      3.505307  
    2482A      3.507239  2483A      3.508104  2484A      3.509438  
    2485A      3.515007  2486A      3.515441  2487A      3.516552  
    2488A      3.517711  2489A      3.524392  2490A      3.525033  
    2491A      3.529549  2492A      3.530185  2493A      3.531937  
    2494A      3.533547  2495A      3.537284  2496A      3.541909  
    2497A      3.543349  2498A      3.543823  2499A      3.544210  
    2500A      3.548253  2501A      3.548391  2502A      3.549292  
    2503A      3.554526  2504A      3.555320  2505A      3.559133  
    2506A      3.562539  2507A      3.564277  2508A      3.566171  
    2509A      3.568444  2510A      3.569766  2511A      3.574562  
    2512A      3.580180  2513A      3.582678  2514A      3.585704  
    2515A      3.587469  2516A      3.589806  2517A      3.591517  
    2518A      3.593972  2519A      3.596277  2520A      3.597959  
    2521A      3.599132  2522A      3.600419  2523A      3.601740  
    2524A      3.604661  2525A      3.606693  2526A      3.608904  
    2527A      3.609785  2528A      3.612199  2529A      3.613324  
    2530A      3.615567  2531A      3.619035  2532A      3.623068  
    2533A      3.624297  2534A      3.626885  2535A      3.630530  
    2536A      3.634874  2537A      3.635450  2538A      3.636034  
    2539A      3.638647  2540A      3.640069  2541A      3.641215  
    2542A      3.648837  2543A      3.651218  2544A      3.652573  
    2545A      3.656922  2546A      3.661614  2547A      3.662803  
    2548A      3.663505  2549A      3.670549  2550A      3.672120  
    2551A      3.672839  2552A      3.674111  2553A      3.674885  
    2554A      3.681717  2555A      3.685083  2556A      3.686531  
    2557A      3.688220  2558A      3.690260  2559A      3.690787  
    2560A      3.695786  2561A      3.696593  2562A      3.699139  
    2563A      3.701215  2564A      3.704850  2565A      3.706877  
    2566A      3.710763  2567A      3.711742  2568A      3.714201  
    2569A      3.715515  2570A      3.720262  2571A      3.720941  
    2572A      3.723689  2573A      3.725789  2574A      3.727267  
    2575A      3.728972  2576A      3.731502  2577A      3.733555  
    2578A      3.736591  2579A      3.738764  2580A      3.740198  
    2581A      3.743025  2582A      3.743121  2583A      3.746341  
    2584A      3.751383  2585A      3.752857  2586A      3.753841  
    2587A      3.755314  2588A      3.756624  2589A      3.757747  
    2590A      3.758449  2591A      3.763039  2592A      3.764061  
    2593A      3.772022  2594A      3.772207  2595A      3.775318  
    2596A      3.778457  2597A      3.783629  2598A      3.785169  
    2599A      3.787348  2600A      3.787943  2601A      3.792388  
    2602A      3.793152  2603A      3.794622  2604A      3.801353  
    2605A      3.802284  2606A      3.807434  2607A      3.807557  
    2608A      3.808875  2609A      3.810691  2610A      3.813393  
    2611A      3.816493  2612A      3.817760  2613A      3.822498  
    2614A      3.822798  2615A      3.824224  2616A      3.826235  
    2617A      3.830240  2618A      3.834998  2619A      3.836017  
    2620A      3.836503  2621A      3.837304  2622A      3.841602  
    2623A      3.844159  2624A      3.849680  2625A      3.850974  
    2626A      3.852057  2627A      3.856091  2628A      3.860687  
    2629A      3.861439  2630A      3.863502  2631A      3.865918  
    2632A      3.869819  2633A      3.871850  2634A      3.874297  
    2635A      3.879428  2636A      3.885306  2637A      3.887476  
    2638A      3.887813  2639A      3.888163  2640A      3.893693  
    2641A      3.895933  2642A      3.896774  2643A      3.897570  
    2644A      3.899464  2645A      3.900557  2646A      3.904704  
    2647A      3.906901  2648A      3.908460  2649A      3.909540  
    2650A      3.914274  2651A      3.915415  2652A      3.915831  
    2653A      3.916446  2654A      3.920162  2655A      3.924040  
    2656A      3.925963  2657A      3.930390  2658A      3.931671  
    2659A      3.934264  2660A      3.935256  2661A      3.938393  
    2662A      3.938612  2663A      3.939702  2664A      3.942343  
    2665A      3.946610  2666A      3.948873  2667A      3.949690  
    2668A      3.953233  2669A      3.953517  2670A      3.955801  
    2671A      3.960083  2672A      3.961620  2673A      3.961751  
    2674A      3.964859  2675A      3.965690  2676A      3.968956  
    2677A      3.972112  2678A      3.976674  2679A      3.980097  
    2680A      3.981326  2681A      3.983807  2682A      3.988767  
    2683A      3.989894  2684A      3.993639  2685A      3.994489  
    2686A      4.000425  2687A      4.001672  2688A      4.004161  
    2689A      4.005114  2690A      4.006052  2691A      4.008981  
    2692A      4.010268  2693A      4.013993  2694A      4.016633  
    2695A      4.017946  2696A      4.019478  2697A      4.021233  
    2698A      4.025342  2699A      4.025541  2700A      4.028473  
    2701A      4.033306  2702A      4.034033  2703A      4.036065  
    2704A      4.037575  2705A      4.039386  2706A      4.041467  
    2707A      4.041851  2708A      4.042475  2709A      4.049365  
    2710A      4.049792  2711A      4.051523  2712A      4.053591  
    2713A      4.055700  2714A      4.058333  2715A      4.059627  
    2716A      4.060250  2717A      4.064206  2718A      4.067753  
    2719A      4.069257  2720A      4.070962  2721A      4.074905  
    2722A      4.079883  2723A      4.085068  2724A      4.086584  
    2725A      4.088531  2726A      4.089778  2727A      4.091632  
    2728A      4.095121  2729A      4.098974  2730A      4.099998  
    2731A      4.101839  2732A      4.102839  2733A      4.104241  
    2734A      4.108586  2735A      4.110256  2736A      4.111437  
    2737A      4.112393  2738A      4.112539  2739A      4.117282  
    2740A      4.120210  2741A      4.121466  2742A      4.123961  
    2743A      4.126240  2744A      4.127837  2745A      4.128739  
    2746A      4.129861  2747A      4.130467  2748A      4.132958  
    2749A      4.134368  2750A      4.136684  2751A      4.139406  
    2752A      4.141332  2753A      4.143827  2754A      4.144989  
    2755A      4.149456  2756A      4.150121  2757A      4.151866  
    2758A      4.155808  2759A      4.157260  2760A      4.159044  
    2761A      4.161285  2762A      4.164803  2763A      4.166126  
[...]
    4234A      9.403211  4235A      9.405104  4236A      9.406534  
    4237A      9.410061  4238A      9.411491  4239A      9.411790  
    4240A      9.422388  4241A      9.424969  4242A      9.430735  
    4243A      9.432402  4244A      9.434165  4245A      9.440858  
    4246A      9.441539  4247A      9.443610  4248A      9.447275  
    4249A      9.450259  4250A      9.451343  4251A      9.454357  
    4252A      9.458066  4253A      9.461250  4254A      9.467489  
    4255A      9.469515  4256A      9.473919  4257A      9.484837  
    4258A      9.490008  4259A      9.490264  4260A      9.493624  
    4261A      9.494871  4262A      9.501098  4263A      9.506922  
    4264A      9.508075  4265A      9.514028  4266A      9.516429  
    4267A      9.518612  4268A      9.523334  4269A      9.531259  
    4270A      9.535069  4271A      9.539316  4272A      9.545385  
    4273A      9.547964  4274A      9.550859  4275A      9.552904  
    4276A      9.558982  4277A      9.559531  4278A      9.560110  
    4279A      9.560942  4280A      9.567340  4281A      9.569300  
    4282A      9.578841  4283A      9.585307  4284A      9.593282  
    4285A      9.597046  4286A      9.599575  4287A      9.602355  
    4288A      9.603466  4289A      9.611873  4290A      9.620451  
    4291A      9.620839  4292A      9.623734  4293A      9.627262  
    4294A      9.629510  4295A      9.634626  4296A      9.638615  
    4297A      9.643201  4298A      9.647910  4299A      9.651999  
    4300A      9.655891  4301A      9.659849  4302A      9.663657  
    4303A      9.675733  4304A      9.676813  4305A      9.679669  
    4306A      9.684902  4307A      9.687712  4308A      9.694615  
    4309A      9.696647  4310A      9.701413  4311A      9.706004  
    4312A      9.710061  4313A      9.714747  4314A      9.723424  
    4315A      9.724770  4316A      9.726227  4317A      9.728273  
    4318A      9.731470  4319A      9.738715  4320A      9.739626  
    4321A      9.742308  4322A      9.745478  4323A      9.747609  
    4324A      9.754659  4325A      9.755682  4326A      9.764353  
    4327A      9.766482  4328A      9.767513  4329A      9.769488  
    4330A      9.777943  4331A      9.785663  4332A      9.785789  
    4333A      9.792496  4334A      9.794114  4335A      9.795614  
    4336A      9.796877  4337A      9.798709  4338A      9.803094  
    4339A      9.812129  4340A      9.813069  4341A      9.814212  
    4342A      9.818637  4343A      9.820674  4344A      9.821192  
    4345A      9.827776  4346A      9.829098  4347A      9.831272  
    4348A      9.833416  4349A      9.844550  4350A      9.845376  
    4351A      9.852281  4352A      9.854796  4353A      9.856453  
    4354A      9.860937  4355A      9.866202  4356A      9.867424  
    4357A      9.868765  4358A      9.872888  4359A      9.875353  
    4360A      9.878316  4361A      9.880255  4362A      9.888824  
    4363A      9.895843  4364A      9.899786  4365A      9.902834  
    4366A      9.905703  4367A      9.907669  4368A      9.909077  
    4369A      9.909334  4370A      9.916905  4371A      9.918452  
    4372A      9.923186  4373A      9.924620  4374A      9.926509  
    4375A      9.927954  4376A      9.935483  4377A      9.940281  
    4378A      9.940824  4379A      9.943813  4380A      9.947391  
    4381A      9.953086  4382A      9.960520  4383A      9.963463  
    4384A      9.965943  4385A      9.971893  4386A      9.975356  
    4387A      9.978406  4388A      9.995001  4389A     10.005316  
    4390A     10.007609  4391A     10.008439  4392A     10.013385  
    4393A     10.028780  4394A     10.035786  4395A     10.038913  
    4396A     10.040877  4397A     10.045166  4398A     10.048284  
    4399A     10.050918  4400A     10.051182  4401A     10.054040  
    4402A     10.063528  4403A     10.065801  4404A     10.069290  
    4405A     10.074784  4406A     10.076225  4407A     10.082610  
    4408A     10.092143  4409A     10.097124  4410A     10.098787  
    4411A     10.104561  4412A     10.111473  4413A     10.116611  
    4414A     10.118467  4415A     10.120689  4416A     10.133735  
    4417A     10.136940  4418A     10.138799  4419A     10.141072  
    4420A     10.149176  4421A     10.152466  4422A     10.152796  
    4423A     10.155422  4424A     10.162320  4425A     10.163298  
    4426A     10.166741  4427A     10.170381  4428A     10.171299  
    4429A     10.175011  4430A     10.176686  4431A     10.177929  
    4432A     10.182697  4433A     10.184972  4434A     10.190358  
    4435A     10.200159  4436A     10.202952  4437A     10.203300  
    4438A     10.205990  4439A     10.211987  4440A     10.214758  
    4441A     10.216866  4442A     10.223566  4443A     10.224194  
    4444A     10.227922  4445A     10.229944  4446A     10.236372  
    4447A     10.238493  4448A     10.245484  4449A     10.252277  
    4450A     10.256098  4451A     10.265945  4452A     10.269140  
    4453A     10.269851  4454A     10.272840  4455A     10.273764  
    4456A     10.275460  4457A     10.284134  4458A     10.286237  
    4459A     10.291436  4460A     10.292789  4461A     10.298367  
    4462A     10.301179  4463A     10.301836  4464A     10.302031  
    4465A     10.302281  4466A     10.310010  4467A     10.314168  
    4468A     10.315567  4469A     10.318661  4470A     10.319112  
    4471A     10.332484  4472A     10.333100  4473A     10.340593  
    4474A     10.341724  4475A     10.342024  4476A     10.345948  
    4477A     10.350208  4478A     10.353215  4479A     10.360648  
    4480A     10.361644  4481A     10.368701  4482A     10.369074  
    4483A     10.372207  4484A     10.378305  4485A     10.380846  
    4486A     10.383062  4487A     10.386496  4488A     10.394581  
    4489A     10.400996  4490A     10.410506  4491A     10.418840  
    4492A     10.422201  4493A     10.422939  4494A     10.425522  
    4495A     10.429434  4496A     10.436958  4497A     10.441580  
    4498A     10.444616  4499A     10.448451  4500A     10.455299  
    4501A     10.456243  4502A     10.457017  4503A     10.461704  
    4504A     10.464735  4505A     10.467273  4506A     10.471632  
    4507A     10.475949  4508A     10.479109  4509A     10.482303  
    4510A     10.487726  4511A     10.494903  4512A     10.496560  
    4513A     10.504005  4514A     10.517176  4515A     10.520408  
    4516A     10.528289  4517A     10.538619  4518A     10.539828  
    4519A     10.546408  4520A     10.549703  4521A     10.557321  
    4522A     10.574919  4523A     10.588064  4524A     10.588605  
    4525A     10.589977  4526A     10.593858  4527A     10.603533  
    4528A     10.608215  4529A     10.608892  4530A     10.614376  
    4531A     10.625009  4532A     10.625621  4533A     10.641814  
    4534A     10.654066  4535A     10.655878  4536A     10.664413  
    4537A     10.676366  4538A     10.676575  4539A     10.677376  
    4540A     10.700501  4541A     10.705708  4542A     10.710107  
    4543A     10.713575  4544A     10.739838  4545A     10.740857  
    4546A     10.758076  4547A     10.761971  4548A     10.766066  
    4549A     10.766684  4550A     10.770341  4551A     10.784969  
    4552A     10.793168  4553A     10.798401  4554A     10.815628  
    4555A     10.820569  4556A     10.823112  4557A     10.825583  
    4558A     10.838459  4559A     10.840150  4560A     10.842222  
    4561A     10.846593  4562A     10.849997  4563A     10.854376  
    4564A     10.864419  4565A     10.876042  4566A     10.879266  
    4567A     10.880069  4568A     10.884646  4569A     10.887346  
    4570A     10.888284  4571A     10.896431  4572A     10.898354  
    4573A     10.902162  4574A     10.909982  4575A     10.913018  
    4576A     10.917479  4577A     10.920768  4578A     10.925326  
    4579A     10.936411  4580A     10.952854  4581A     10.955688  
    4582A     10.958303  4583A     10.963511  4584A     10.968434  
    4585A     10.983941  4586A     10.996053  4587A     10.996124  
    4588A     10.997071  4589A     11.006635  4590A     11.011098  
    4591A     11.011646  4592A     11.013476  4593A     11.018076  
    4594A     11.022451  4595A     11.030140  4596A     11.032339  
    4597A     11.040670  4598A     11.048319  4599A     11.052795  
    4600A     11.055681  4601A     11.060467  4602A     11.068757  
    4603A     11.069367  4604A     11.071837  4605A     11.077613  
    4606A     11.080268  4607A     11.083999  4608A     11.086092  
    4609A     11.095695  4610A     11.103987  4611A     11.112311  
    4612A     11.112357  4613A     11.112472  4614A     11.125065  
    4615A     11.128897  4616A     11.133949  4617A     11.137141  
    4618A     11.144561  4619A     11.151718  4620A     11.155265  
    4621A     11.155568  4622A     11.164550  4623A     11.166390  
    4624A     11.169649  4625A     11.173243  4626A     11.176167  
    4627A     11.177048  4628A     11.182654  4629A     11.184487  
    4630A     11.199001  4631A     11.199359  4632A     11.201774  
    4633A     11.213696  4634A     11.218851  4635A     11.219307  
    4636A     11.219657  4637A     11.223346  4638A     11.228803  
    4639A     11.234370  4640A     11.248354  4641A     11.250571  
    4642A     11.252241  4643A     11.255009  4644A     11.259456  
    4645A     11.262256  4646A     11.263741  4647A     11.273223  
    4648A     11.279204  4649A     11.283213  4650A     11.289452  
    4651A     11.296630  4652A     11.310789  4653A     11.320463  
    4654A     11.324482  4655A     11.326618  4656A     11.329053  
    4657A     11.331906  4658A     11.353891  4659A     11.358856  
    4660A     11.361027  4661A     11.367192  4662A     11.376640  
    4663A     11.377560  4664A     11.389396  4665A     11.396259  
    4666A     11.397032  4667A     11.403327  4668A     11.409003  
    4669A     11.411667  4670A     11.420596  4671A     11.425287  
    4672A     11.434486  4673A     11.439386  4674A     11.447575  
    4675A     11.450605  4676A     11.455012  4677A     11.457533  
    4678A     11.459252  4679A     11.466647  4680A     11.471166  
    4681A     11.471640  4682A     11.475307  4683A     11.500904  
    4684A     11.503025  4685A     11.504209  4686A     11.520284  
    4687A     11.527690  4688A     11.528368  4689A     11.529093  
    4690A     11.545051  4691A     11.547091  4692A     11.548033  
    4693A     11.550905  4694A     11.551872  4695A     11.571033  
    4696A     11.577156  4697A     11.583168  4698A     11.585555  
    4699A     11.598976  4700A     11.604334  4701A     11.607598  
    4702A     11.612055  4703A     11.616678  4704A     11.622915  
    4705A     11.628800  4706A     11.636715  4707A     11.645153  
    4708A     11.647327  4709A     11.655515  4710A     11.656117  
    4711A     11.658108  4712A     11.664447  4713A     11.674882  
    4714A     11.682580  4715A     11.684418  4716A     11.686991  
    4717A     11.692828  4718A     11.699821  4719A     11.712847  
    4720A     11.715300  4721A     11.716240  4722A     11.717562  
    4723A     11.722088  4724A     11.747518  4725A     11.752660  
    4726A     11.757727  4727A     11.765078  4728A     11.782080  
    4729A     11.786671  4730A     11.791835  4731A     11.793063  
    4732A     11.797189  4733A     11.801369  4734A     11.808836  
    4735A     11.819975  4736A     11.826490  4737A     11.849422  
    4738A     11.866199  4739A     11.875343  4740A     11.893388  
    4741A     11.903134  4742A     11.907181  4743A     11.917051  
    4744A     11.933557  4745A     11.934986  4746A     11.936484  
    4747A     11.940374  4748A     11.952355  4749A     11.954234  
    4750A     11.959503  4751A     11.960205  4752A     11.971364  
    4753A     11.976938  4754A     11.983449  4755A     11.990349  
    4756A     12.001916  4757A     12.011657  4758A     12.015449  
    4759A     12.025715  4760A     12.028000  4761A     12.035579  
    4762A     12.044745  4763A     12.044761  4764A     12.046209  
    4765A     12.074659  4766A     12.086440  4767A     12.102921  
    4768A     12.113985  4769A     12.123699  4770A     12.162221  
    4771A     12.167363  4772A     12.178187  4773A     12.178998  
    4774A     12.185389  4775A     12.186971  4776A     12.197228  
    4777A     12.199863  4778A     12.210062  4779A     12.228386  
    4780A     12.235520  4781A     12.237381  4782A     12.238999  
    4783A     12.247455  4784A     12.248515  4785A     12.254027  
    4786A     12.258806  4787A     12.268215  4788A     12.269431  
    4789A     12.273269  4790A     12.283187  4791A     12.287869  
    4792A     12.294985  4793A     12.297950  4794A     12.301007  
    4795A     12.317092  4796A     12.320695  4797A     12.320920  
    4798A     12.321892  4799A     12.337873  4800A     12.339146  
    4801A     12.350725  4802A     12.353419  4803A     12.354057  
    4804A     12.360873  4805A     12.364217  4806A     12.379735  
    4807A     12.387737  4808A     12.391999  4809A     12.400365  
    4810A     12.400917  4811A     12.412990  4812A     12.419945  
    4813A     12.422469  4814A     12.437739  4815A     12.447713  
    4816A     12.453458  4817A     12.476478  4818A     12.485112  
    4819A     12.505443  4820A     12.532503  4821A     12.554262  
    4822A     12.565449  4823A     12.593308  4824A     12.605215  
    4825A     12.608079  4826A     12.618027  4827A     12.628421  
    4828A     12.678492  4829A     12.684354  4830A     12.690229  
    4831A     12.738759  4832A     12.750172  4833A     12.751720  
    4834A     12.763091  4835A     12.776668  4836A     12.781612  
    4837A     12.797334  4838A     12.799945  4839A     12.807371  
    4840A     12.808756  4841A     12.819728  4842A     12.822823  
    4843A     12.833570  4844A     12.844911  4845A     12.853552  
    4846A     12.865538  4847A     12.867427  4848A     12.873416  
    4849A     12.885391  4850A     12.892818  4851A     12.921876  
    4852A     12.933446  4853A     12.954427  4854A     12.959480  
    4855A     12.973220  4856A     12.974001  4857A     12.979915  
    4858A     12.981750  4859A     12.995757  4860A     13.001110  
    4861A     13.003502  4862A     13.014282  4863A     13.016175  
    4864A     13.018710  4865A     13.039343  4866A     13.051954  
    4867A     13.054092  4868A     13.078000  4869A     13.081185  
    4870A     13.091236  4871A     13.093664  4872A     13.104042  
    4873A     13.108003  4874A     13.117781  4875A     13.131383  
    4876A     13.135080  4877A     13.135513  4878A     13.149388  
    4879A     13.165560  4880A     13.179065  4881A     13.187403  
    4882A     13.202318  4883A     13.207945  4884A     13.210478  
    4885A     13.244739  4886A     13.245517  4887A     13.261895  
    4888A     13.282677  4889A     13.284907  4890A     13.312267  
    4891A     13.320146  4892A     13.333942  4893A     13.353147  
    4894A     13.353424  4895A     13.353996  4896A     13.368041  
    4897A     13.377231  4898A     13.385700  4899A     13.394485  
    4900A     13.397116  4901A     13.400071  4902A     13.403683  
    4903A     13.419771  4904A     13.424129  4905A     13.433645  
    4906A     13.434366  4907A     13.441933  4908A     13.447662  
    4909A     13.451050  4910A     13.461944  4911A     13.462356  
    4912A     13.464928  4913A     13.471025  4914A     13.473795  
    4915A     13.479782  4916A     13.491832  4917A     13.512613  
    4918A     13.514017  4919A     13.517358  4920A     13.526753  
    4921A     13.541472  4922A     13.549366  4923A     13.555140  
    4924A     13.556515  4925A     13.558517  4926A     13.560336  
    4927A     13.588118  4928A     13.606222  4929A     13.608227  
    4930A     13.612416  4931A     13.623826  4932A     13.627435  
    4933A     13.661658  4934A     13.691893  4935A     13.697058  
    4936A     13.722902  4937A     13.743467  4938A     13.756585  
    4939A     13.763018  4940A     13.770729  4941A     13.775506  
    4942A     13.787881  4943A     13.814592  4944A     13.832199  
    4945A     13.868594  4946A     13.875684  4947A     13.889610  
    4948A     13.912127  4949A     13.917168  4950A     13.953076  
    4951A     13.966222  4952A     13.992203  4953A     14.050248  
    4954A     14.055950  4955A     14.060757  4956A     14.072748  
    4957A     14.073785  4958A     14.084644  4959A     14.121735  
    4960A     14.153243  4961A     14.156855  4962A     14.157710  
    4963A     14.196195  4964A     14.213261  4965A     14.272685  
    4966A     14.350950  4967A     14.390518  4968A     14.405272  
    4969A     14.524725  4970A     14.541478  4971A     14.541665  
    4972A     14.590398  4973A     14.629234  4974A     14.639682  
    4975A     14.652369  4976A     14.665394  4977A     14.669352  
    4978A     14.675455  4979A     14.675583  4980A     14.702286  
    4981A     14.707834  4982A     14.801397  4983A     14.878388  
    4984A     14.901567  4985A     14.919637  4986A     15.024627  
    4987A     15.054011  4988A     15.073347  4989A     15.082748  
    4990A     15.095357  4991A     15.128465  4992A     15.132984  
    4993A     15.173755  4994A     15.175136  4995A     15.182686  
    4996A     15.214387  4997A     15.218289  4998A     15.253926  
    4999A     15.288554  5000A     15.372517  5001A     15.386183  
    5002A     15.403766  5003A     15.418146  5004A     15.448930  
    5005A     15.450620  5006A     15.528498  5007A     15.561413  
    5008A     15.569783  5009A     15.597708  5010A     15.601554  
    5011A     17.406000  5012A     17.544231  5013A     17.691298  
    5014A     26.595558  5015A     26.792274  5016A     26.897618  
    5017A     26.990777  5018A     27.007486  5019A     27.029196  
    5020A     27.261166  5021A     27.419664  5022A     27.459053  
    5023A     27.695843  5024A     28.085262  5025A     28.100477  
    5026A     28.156908  5027A     28.406572  5028A     28.465622  
    5029A     28.481520  5030A     28.482182  5031A     28.517238  
    5032A     28.705758  5033A     28.978125  5034A     28.985943  
    5035A     35.495818  5036A     36.074477  5037A     36.100488  
    5038A     36.182400  5039A     36.368437  5040A     36.415683  
    5041A     43.966163  5042A     44.450135  5043A     44.456785  
    5044A     44.653263  5045A     44.664158  5046A     44.676810  
    5047A     44.719511  5048A     45.042353  5049A     45.121838  
    5050A     45.969292  5051A     46.326519  5052A     46.624550  

    Final Occupation by Irrep:
              A 
    DOCC [   153 ]

  Energy converged.

  @DF-RHF Final Energy: -2045.40542496391618

   => Energetics <=

    Nuclear Repulsion Energy =           3942.7865771560391295
    One-Electron Energy =              -10650.9371966747003171
    Two-Electron Energy =                4662.7451945547445575
    Total Energy =                      -2045.4054249639166301



Properties will be evaluated at   0.000000,   0.000000,   0.000000 Bohr

Properties computed using the SCF density matrix

  Nuclear Dipole Moment: (a.u.)
     X:   -20.8036      Y:   -23.1315      Z:   -12.8132

  Electronic Dipole Moment: (a.u.)
     X:    21.3467      Y:    21.9679      Z:    14.8937

  Dipole Moment: (a.u.)
     X:     0.5431      Y:    -1.1636      Z:     2.0805     Total:     2.4448

  Dipole Moment: (Debye)
     X:     1.3805      Y:    -2.9576      Z:     5.2880     Total:     6.2142


*** tstop() called on hex15 at Thu Mar  8 23:49:09 2018
Module time:
	user time   =   57344.40 seconds =     955.74 minutes
	system time =    3206.08 seconds =      53.43 minutes
	total time  =      46896 seconds =     781.60 minutes
Total time:
	user time   =   57344.40 seconds =     955.74 minutes
	system time =    3206.08 seconds =      53.43 minutes
	total time  =      46896 seconds =     781.60 minutes

*** Psi4 exiting successfully. Buy a developer a beer!
