
    -----------------------------------------------------------------------
          Psi4: An Open-Source Ab Initio Electronic Structure Package
                               Psi4 1.2a1.dev875 

                         Git: Rev {symm_JK} 0ea9481 dirty


    R. M. Parrish, L. A. Burns, D. G. A. Smith, A. C. Simmonett,
    A. E. DePrince III, E. G. Hohenstein, U. Bozkaya, A. Yu. Sokolov,
    R. Di Remigio, R. M. Richard, J. F. Gonthier, A. M. James,
    H. R. McAlexander, A. Kumar, M. Saitow, X. Wang, B. P. Pritchard,
    P. Verma, H. F. Schaefer III, K. Patkowski, R. A. King, E. F. Valeev,
    F. A. Evangelista, J. M. Turney, T. D. Crawford, and C. D. Sherrill,
    J. Chem. Theory Comput. 13(7) pp 3185--3197 (2017).
    (doi: 10.1021/acs.jctc.7b00174)

    -----------------------------------------------------------------------


    Psi4 started on: Tuesday, 06 March 2018 04:53AM

    Process ID:  19183
    PSIDATADIR: /theoryfs2/ds/schieber/Gits/mspsi4/objdir3/stage/usr/local/psi4/share/psi4
    Memory:     500.0 MiB
    Threads:    6
    
  ==> Input File <==

--------------------------------------------------------------------------
memory 60 Gb

molecule protein_81 {
0 1
 N   18.626  30.444   6.627
 C   17.853  29.516   5.837
 C   16.945  30.292   4.886
 O   15.843  30.678   5.237
 C   17.047  28.642   6.811
 C   16.316  27.513   6.146
 O   16.236  27.458   4.905
 O   15.762  26.696   6.882
 N    4.567  24.042   8.795
 C    4.886  22.777   8.145
 C    6.265  22.720   7.521
 O    6.723  23.689   6.900
 N   17.407  27.054  -1.437
 C   17.227  26.751  -0.026
 C   18.555  26.446   0.653
 O   19.003  25.309   0.692
 C   16.258  25.572   0.084
 C   15.759  25.336   1.493
 O   16.399  25.780   2.453
 O   14.731  24.675   1.645
 N   19.106  26.199   3.688
 C   18.957  25.372   4.876
 C   18.845  23.903   4.520
 O   18.660  23.054   5.417
 N   20.536  20.559   2.918
 C   21.779  19.912   2.496
 C   21.693  19.374   1.107
 O   22.642  19.502   0.361
 C   22.169  18.827   3.447
 C   22.272  19.337   4.844
 O   22.714  20.482   5.029
 O   21.836  18.647   5.778
 N   15.750  18.102  -3.440
 C   14.628  17.162  -3.514
 C   13.618  17.726  -4.436
 O   13.169  18.861  -4.263
 C   13.781  17.005  -2.245
 C   13.297  15.592  -2.184
 C   14.518  17.455  -1.007
 H   18.180  30.990   7.295
 H   18.510  28.835   5.249
 H   16.336  29.276   7.377
 H   17.778  28.186   7.516
 H   15.845  26.702   7.843
 H    4.436  24.871   8.195
 H    4.744  21.930   8.802
 H    4.143  22.632   7.335
 H   17.860  26.421  -2.023
 H   16.724  27.595   0.500
 H   16.724  24.663  -0.337
 H   15.363  25.845  -0.519
 H   16.737  25.171   3.109
 H   18.314  26.771   3.377
 H   18.015  25.631   5.391
 H   19.792  25.567   5.577
 H   19.976  20.073   3.597
 H   22.602  20.664   2.537
 H   23.175  18.459   3.144
 H   21.465  17.966   3.392
 H   21.492  17.752   5.634
 H   15.541  19.065  -3.172
 H   15.011  16.180  -3.836
 H   12.886  17.674  -2.203
 H   14.115  14.872  -2.046
 H   12.706  15.323  -3.086
 H   12.624  15.478  -1.307
 H   15.405  16.799  -0.936
 H   13.886  17.316  -0.103
 H   14.813  18.522  -1.068
 H   19.646  30.419   6.619
 H   17.295  30.415   3.850
 H    4.454  24.117   9.806
 H    6.887  21.864   7.822
 H   16.947  27.858  -1.864
 H   19.060  27.284   1.155
 H   20.034  26.347   3.290
 H   18.824  23.654   3.449
 H   20.197  21.395   2.443
 H   20.727  18.956   0.786
 H   16.715  17.829  -3.624
 H   13.269  17.060  -5.239
}

set {
basis cc-pvqz
scf_type df
guess sad
DF_SCF_TYPE DFJK
}

energy('HF')
--------------------------------------------------------------------------

  Memory set to  55.879 GiB by Python driver.

*** tstart() called on hex15
*** at Tue Mar  6 04:53:22 2018

   => Loading Basis Set <=

    Name: CC-PVQZ
    Role: ORBITAL
    Keyword: BASIS
    atoms 1, 9, 13, 21, 25, 33                                             entry N          line   289 file /theoryfs2/ds/schieber/Gits/mspsi4/objdir3/stage/usr/local/psi4/share/psi4/basis/cc-pvqz.gbs 
    atoms 2-3, 5-6, 10-11, 14-15, 17-18, 22-23, 26-27, 29-30, 34-35, 37-39 entry C          line   239 file /theoryfs2/ds/schieber/Gits/mspsi4/objdir3/stage/usr/local/psi4/share/psi4/basis/cc-pvqz.gbs 
    atoms 4, 7-8, 12, 16, 19-20, 24, 28, 31-32, 36                         entry O          line   339 file /theoryfs2/ds/schieber/Gits/mspsi4/objdir3/stage/usr/local/psi4/share/psi4/basis/cc-pvqz.gbs 
    atoms 40-81                                                            entry H          line    22 file /theoryfs2/ds/schieber/Gits/mspsi4/objdir3/stage/usr/local/psi4/share/psi4/basis/cc-pvqz.gbs 


         ---------------------------------------------------------
                                   SCF
            by Justin Turney, Rob Parrish, Andy Simmonett
                             and Daniel Smith
                              RHF Reference
                        6 Threads,  57220 MiB Core
         ---------------------------------------------------------

  ==> Geometry <==

    Molecular point group: c1
    Full point group: C1

    Geometry (in Angstrom), charge = 0, multiplicity = 1:

       Center              X                  Y                   Z               Mass       
    ------------   -----------------  -----------------  -----------------  -----------------
           N          2.162085654028     7.131922671342     3.830998506539    14.003074004780
           C          1.389085654028     6.203922671342     3.040998506539    12.000000000000
           C          0.481085654028     6.979922671342     2.089998506539    12.000000000000
           O         -0.620914345972     7.365922671342     2.440998506539    15.994914619560
           C          0.583085654028     5.329922671342     4.014998506539    12.000000000000
           C         -0.147914345972     4.200922671342     3.349998506539    12.000000000000
           O         -0.227914345972     4.145922671342     2.108998506539    15.994914619560
           O         -0.701914345972     3.383922671342     4.085998506539    15.994914619560
           N        -11.896914345972     0.729922671342     5.998998506539    14.003074004780
           C        -11.577914345972    -0.535077328658     5.348998506539    12.000000000000
           C        -10.198914345972    -0.592077328658     4.724998506539    12.000000000000
           O         -9.740914345972     0.376922671342     4.103998506539    15.994914619560
           N          0.943085654028     3.741922671342    -4.233001493461    14.003074004780
           C          0.763085654028     3.438922671342    -2.822001493461    12.000000000000
           C          2.091085654028     3.133922671342    -2.143001493461    12.000000000000
           O          2.539085654028     1.996922671342    -2.104001493461    15.994914619560
           C         -0.205914345972     2.259922671342    -2.712001493461    12.000000000000
           C         -0.704914345972     2.023922671342    -1.303001493461    12.000000000000
           O         -0.064914345972     2.467922671342    -0.343001493461    15.994914619560
           O         -1.732914345972     1.362922671342    -1.151001493461    15.994914619560
           N          2.642085654028     2.886922671342     0.891998506539    14.003074004780
           C          2.493085654028     2.059922671342     2.079998506539    12.000000000000
           C          2.381085654028     0.590922671342     1.723998506539    12.000000000000
           O          2.196085654028    -0.258077328658     2.620998506539    15.994914619560
           N          4.072085654028    -2.753077328658     0.121998506539    14.003074004780
           C          5.315085654028    -3.400077328658    -0.300001493461    12.000000000000
           C          5.229085654028    -3.938077328658    -1.689001493461    12.000000000000
           O          6.178085654028    -3.810077328658    -2.435001493461    15.994914619560
           C          5.705085654028    -4.485077328658     0.650998506539    12.000000000000
           C          5.808085654028    -3.975077328658     2.047998506539    12.000000000000
           O          6.250085654028    -2.830077328658     2.232998506539    15.994914619560
           O          5.372085654028    -4.665077328658     2.981998506539    15.994914619560
           N         -0.713914345972    -5.210077328658    -6.236001493461    14.003074004780
           C         -1.835914345972    -6.150077328658    -6.310001493461    12.000000000000
           C         -2.845914345972    -5.586077328658    -7.232001493461    12.000000000000
           O         -3.294914345972    -4.451077328658    -7.059001493461    15.994914619560
           C         -2.682914345972    -6.307077328658    -5.041001493461    12.000000000000
           C         -3.166914345972    -7.720077328658    -4.980001493461    12.000000000000
           C         -1.945914345972    -5.857077328658    -3.803001493461    12.000000000000
           H          1.716085654028     7.677922671342     4.498998506539     1.007825032070
           H          2.046085654028     5.522922671342     2.452998506539     1.007825032070
           H         -0.127914345972     5.963922671342     4.580998506539     1.007825032070
           H          1.314085654028     4.873922671342     4.719998506539     1.007825032070
           H         -0.618914345972     3.389922671342     5.046998506539     1.007825032070
           H        -12.027914345972     1.558922671342     5.398998506539     1.007825032070
           H        -11.719914345972    -1.382077328658     6.005998506539     1.007825032070
           H        -12.320914345972    -0.680077328658     4.538998506539     1.007825032070
           H          1.396085654028     3.108922671342    -4.819001493461     1.007825032070
           H          0.260085654028     4.282922671342    -2.296001493461     1.007825032070
           H          0.260085654028     1.350922671342    -3.133001493461     1.007825032070
           H         -1.100914345972     2.532922671342    -3.315001493461     1.007825032070
           H          0.273085654028     1.858922671342     0.312998506539     1.007825032070
           H          1.850085654028     3.458922671342     0.580998506539     1.007825032070
           H          1.551085654028     2.318922671342     2.594998506539     1.007825032070
           H          3.328085654028     2.254922671342     2.780998506539     1.007825032070
           H          3.512085654028    -3.239077328658     0.800998506539     1.007825032070
           H          6.138085654028    -2.648077328658    -0.259001493461     1.007825032070
           H          6.711085654028    -4.853077328658     0.347998506539     1.007825032070
           H          5.001085654028    -5.346077328658     0.595998506539     1.007825032070
           H          5.028085654028    -5.560077328658     2.837998506539     1.007825032070
           H         -0.922914345972    -4.247077328658    -5.968001493461     1.007825032070
           H         -1.452914345972    -7.132077328658    -6.632001493461     1.007825032070
           H         -3.577914345972    -5.638077328658    -4.999001493461     1.007825032070
           H         -2.348914345972    -8.440077328658    -4.842001493461     1.007825032070
           H         -3.757914345972    -7.989077328658    -5.882001493461     1.007825032070
           H         -3.839914345972    -7.834077328658    -4.103001493461     1.007825032070
           H         -1.058914345972    -6.513077328658    -3.732001493461     1.007825032070
           H         -2.577914345972    -5.996077328658    -2.899001493461     1.007825032070
           H         -1.650914345972    -4.790077328658    -3.864001493461     1.007825032070
           H          3.182085654028     7.106922671342     3.822998506539     1.007825032070
           H          0.831085654028     7.102922671342     1.053998506539     1.007825032070
           H        -12.009914345972     0.804922671342     7.009998506539     1.007825032070
           H         -9.576914345972    -1.448077328658     5.025998506539     1.007825032070
           H          0.483085654028     4.545922671342    -4.660001493461     1.007825032070
           H          2.596085654028     3.971922671342    -1.641001493461     1.007825032070
           H          3.570085654028     3.034922671342     0.493998506539     1.007825032070
           H          2.360085654028     0.341922671342     0.652998506539     1.007825032070
           H          3.733085654028    -1.917077328658    -0.353001493461     1.007825032070
           H          4.263085654028    -4.356077328658    -2.010001493461     1.007825032070
           H          0.251085654028    -5.483077328658    -6.420001493461     1.007825032070
           H         -3.194914345972    -6.252077328658    -8.035001493461     1.007825032070

  Running in c1 symmetry.

  Rotational constants: A =      0.00108  B =      0.00092  C =      0.00065 [cm^-1]
  Rotational constants: A =     32.29472  B =     27.57633  C =     19.58821 [MHz]
  Nuclear repulsion = 3942.786577156039129

  Charge       = 0
  Multiplicity = 1
  Electrons    = 306
  Nalpha       = 153
  Nbeta        = 153

  ==> Algorithm <==

  SCF Algorithm Type is DF.
  DIIS enabled.
  MOM disabled.
  Fractional occupation disabled.
  Guess Type is SAD.
  Energy threshold   = 1.00e-06
  Density threshold  = 1.00e-06
  Integral threshold = 0.00e+00

  ==> Primary Basis <==

  Basis Set: CC-PVQZ
    Blend: CC-PVQZ
    Number of shells: 1005
    Number of basis function: 3405
    Number of Cartesian functions: 4200
    Spherical Harmonics?: true
    Max angular momentum: 4

   => Loading Basis Set <=

    Name: (CC-PVQZ AUX)
    Role: JKFIT
    Keyword: DF_BASIS_SCF
    atoms 1, 9, 13, 21, 25, 33                                             entry N          line   195 file /theoryfs2/ds/schieber/Gits/mspsi4/objdir3/stage/usr/local/psi4/share/psi4/basis/cc-pvqz-jkfit.gbs 
    atoms 2-3, 5-6, 10-11, 14-15, 17-18, 22-23, 26-27, 29-30, 34-35, 37-39 entry C          line   137 file /theoryfs2/ds/schieber/Gits/mspsi4/objdir3/stage/usr/local/psi4/share/psi4/basis/cc-pvqz-jkfit.gbs 
    atoms 4, 7-8, 12, 16, 19-20, 24, 28, 31-32, 36                         entry O          line   253 file /theoryfs2/ds/schieber/Gits/mspsi4/objdir3/stage/usr/local/psi4/share/psi4/basis/cc-pvqz-jkfit.gbs 
    atoms 40-81                                                            entry H          line    51 file /theoryfs2/ds/schieber/Gits/mspsi4/objdir3/stage/usr/local/psi4/share/psi4/basis/cc-pvqz-jkfit.gbs 

  ==> Pre-Iterations <==

   -------------------------------------------------------
    Irrep   Nso     Nmo     Nalpha   Nbeta   Ndocc  Nsocc
   -------------------------------------------------------
     A       3405    3405       0       0       0       0
   -------------------------------------------------------
    Total    3405    3405     153     153     153       0
   -------------------------------------------------------

  ==> Integral Setup <==

  ==> DFJK: Density-Fitted J/K Matrices <==

    J tasked:                  Yes
    K tasked:                  Yes
    wK tasked:                  No
    OpenMP threads:              6
    Integrals threads:           6
    Memory (MB):             42915
    Algorithm:                Disk
    Integral Cache:           NONE
    Schwarz Cutoff:          1E-12
    Fitting Condition:       1E-12

   => Auxiliary Basis Set <=

  Basis Set: (CC-PVQZ AUX)
    Blend: CC-PVQZ-JKFIT
    Number of shells: 1638
    Number of basis function: 6276
    Number of Cartesian functions: 8310
    Spherical Harmonics?: true
    Max angular momentum: 5

  Minimum eigenvalue in the overlap matrix is 3.7536992062E-05.
  Using Symmetric Orthogonalization.

  SCF Guess: Superposition of Atomic Densities via on-the-fly atomic UHF.

  ==> Iterations <==

                           Total Energy        Delta E     RMS |[F,P]|

   @DF-RHF iter   0: -2059.48354659277402   -2.05948e+03   8.58358e-03 
   @DF-RHF iter   1: -2043.94561841991435    1.55379e+01   1.13638e-03 
   @DF-RHF iter   2: -2044.85575459290158   -9.10136e-01   8.29658e-04 DIIS
   @DF-RHF iter   3: -2045.33849905666284   -4.82744e-01   1.68850e-04 DIIS
   @DF-RHF iter   4: -2045.38616019898836   -4.76611e-02   5.94299e-05 DIIS
   @DF-RHF iter   5: -2045.39345670134298   -7.29650e-03   2.57488e-05 DIIS
   @DF-RHF iter   6: -2045.39536440891652   -1.90771e-03   1.24812e-05 DIIS
   @DF-RHF iter   7: -2045.39587422379054   -5.09815e-04   5.28016e-06 DIIS
   @DF-RHF iter   8: -2045.39596581597016   -9.15922e-05   2.40272e-06 DIIS
   @DF-RHF iter   9: -2045.39598650305379   -2.06871e-05   9.96675e-07 DIIS
   @DF-RHF iter  10: -2045.39599156830650   -5.06525e-06   4.80312e-07 DIIS
   @DF-RHF iter  11: -2045.39599282954123   -1.26123e-06   2.17252e-07 DIIS
   @DF-RHF iter  12: -2045.39599307890035   -2.49359e-07   9.60873e-08 DIIS

  ==> Post-Iterations <==

    Orbital Energies (a.u.)
    -----------------------

    Doubly Occupied:                                                      

       1A    -20.641254     2A    -20.634472     3A    -20.599199  
       4A    -20.565029     5A    -20.557209     6A    -20.556995  
       7A    -20.555560     8A    -20.552206     9A    -20.543122  
      10A    -20.536115    11A    -20.518172    12A    -20.511360  
      13A    -15.555401    14A    -15.548386    15A    -15.546041  
      16A    -15.541747    17A    -15.540159    18A    -15.534127  
      19A    -11.393807    20A    -11.381708    21A    -11.362821  
      22A    -11.342381    23A    -11.335276    24A    -11.334132  
      25A    -11.329069    26A    -11.326251    27A    -11.323582  
      28A    -11.294246    29A    -11.287759    30A    -11.279405  
      31A    -11.275436    32A    -11.271657    33A    -11.268472  
      34A    -11.264963    35A    -11.262224    36A    -11.235569  
      37A    -11.222817    38A    -11.221179    39A    -11.210358  
      40A     -1.525711    41A     -1.512318    42A     -1.496708  
      43A     -1.395517    44A     -1.392266    45A     -1.389747  
      46A     -1.371370    47A     -1.368143    48A     -1.366266  
      49A     -1.355171    50A     -1.339312    51A     -1.329903  
      52A     -1.212199    53A     -1.200069    54A     -1.193178  
      55A     -1.183656    56A     -1.179436    57A     -1.166915  
      58A     -1.077920    59A     -1.055530    60A     -1.053943  
      61A     -1.041357    62A     -0.965427    63A     -0.963326  
      64A     -0.962232    65A     -0.948294    66A     -0.940346  
      67A     -0.935317    68A     -0.928119    69A     -0.904874  
      70A     -0.890722    71A     -0.873100    72A     -0.808853  
      73A     -0.805274    74A     -0.801290    75A     -0.799111  
      76A     -0.793808    77A     -0.792899    78A     -0.758992  
      79A     -0.746215    80A     -0.733855    81A     -0.730141  
      82A     -0.717145    83A     -0.712079    84A     -0.706628  
      85A     -0.704398    86A     -0.697298    87A     -0.693378  
      88A     -0.691580    89A     -0.686494    90A     -0.683812  
      91A     -0.679789    92A     -0.666343    93A     -0.664747  
      94A     -0.660507    95A     -0.658129    96A     -0.657394  
      97A     -0.651761    98A     -0.648033    99A     -0.647326  
     100A     -0.641924   101A     -0.634839   102A     -0.634620  
     103A     -0.629671   104A     -0.628582   105A     -0.627747  
     106A     -0.624471   107A     -0.622205   108A     -0.620651  
     109A     -0.610437   110A     -0.607514   111A     -0.600332  
     112A     -0.589077   113A     -0.576141   114A     -0.572035  
     115A     -0.567527   116A     -0.566074   117A     -0.561104  
     118A     -0.556869   119A     -0.550181   120A     -0.547576  
     121A     -0.546498   122A     -0.533731   123A     -0.530233  
     124A     -0.528606   125A     -0.525058   126A     -0.519414  
     127A     -0.519245   128A     -0.513887   129A     -0.504513  
     130A     -0.501697   131A     -0.488048   132A     -0.486940  
     133A     -0.484720   134A     -0.474702   135A     -0.472652  
     136A     -0.460714   137A     -0.459599   138A     -0.454760  
     139A     -0.446604   140A     -0.444274   141A     -0.443273  
     142A     -0.442429   143A     -0.440863   144A     -0.438907  
     145A     -0.433235   146A     -0.433151   147A     -0.428075  
     148A     -0.385139   149A     -0.380892   150A     -0.376527  
     151A     -0.375889   152A     -0.368099   153A     -0.358462  

    Virtual:                                                              

     154A      0.079530   155A      0.082129   156A      0.087129  
     157A      0.095630   158A      0.099227   159A      0.102761  
     160A      0.103797   161A      0.105246   162A      0.111123  
     163A      0.113913   164A      0.119515   165A      0.123312  
     166A      0.124948   167A      0.131901   168A      0.133635  
     169A      0.133782   170A      0.136610   171A      0.138007  
     172A      0.141614   173A      0.141822   174A      0.142633  
     175A      0.147046   176A      0.150877   177A      0.151254  
     178A      0.154327   179A      0.156995   180A      0.159533  
     181A      0.164047   182A      0.165394   183A      0.168526  
     184A      0.171065   185A      0.174360   186A      0.175987  
     187A      0.178737   188A      0.179236   189A      0.185217  
     190A      0.188296   191A      0.190117   192A      0.192148  
     193A      0.194217   194A      0.199365   195A      0.203606  
     196A      0.205636   197A      0.206570   198A      0.207251  
     199A      0.218787   200A      0.225354   201A      0.231143  
     202A      0.239622   203A      0.241307   204A      0.244611  
     205A      0.246088   206A      0.254734   207A      0.258442  
     208A      0.259553   209A      0.260455   210A      0.261540  
     211A      0.263916   212A      0.271210   213A      0.277845  
     214A      0.281829   215A      0.282038   216A      0.282372  
     217A      0.283764   218A      0.285760   219A      0.287675  
     220A      0.290311   221A      0.291323   222A      0.297726  
     223A      0.298322   224A      0.301489   225A      0.312764  
     226A      0.318184   227A      0.318649   228A      0.320441  
     229A      0.324308   230A      0.325903   231A      0.331057  
     232A      0.332794   233A      0.338755   234A      0.340218  
     235A      0.341356   236A      0.343674   237A      0.348847  
     238A      0.353589   239A      0.354751   240A      0.355596  
     241A      0.360454   242A      0.363024   243A      0.365270  
     244A      0.366571   245A      0.369734   246A      0.371593  
     247A      0.379754   248A      0.381840   249A      0.382402  
     250A      0.385128   251A      0.385966   252A      0.388652  
     253A      0.392393   254A      0.396648   255A      0.397614  
     256A      0.401838   257A      0.402595   258A      0.404890  
     259A      0.408778   260A      0.412073   261A      0.414451  
     262A      0.417104   263A      0.422105   264A      0.426320  
     265A      0.427852   266A      0.428853   267A      0.430026  
     268A      0.433121   269A      0.434907   270A      0.435426  
     271A      0.437903   272A      0.439679   273A      0.440784  
     274A      0.442872   275A      0.443321   276A      0.445175  
     277A      0.447476   278A      0.448597   279A      0.451645  
     280A      0.454719   281A      0.456194   282A      0.460151  
     283A      0.462024   284A      0.463697   285A      0.465085  
     286A      0.468199   287A      0.469053   288A      0.472368  
     289A      0.476066   290A      0.477361   291A      0.478200  
     292A      0.480719   293A      0.482267   294A      0.484711  
     295A      0.486211   296A      0.486507   297A      0.488550  
     298A      0.493380   299A      0.495852   300A      0.497839  
     301A      0.499984   302A      0.502238   303A      0.504595  
     304A      0.506033   305A      0.508528   306A      0.508693  
     307A      0.510054   308A      0.510337   309A      0.514413  
     310A      0.516820   311A      0.517854   312A      0.518932  
     313A      0.522401   314A      0.522672   315A      0.525333  
     316A      0.525929   317A      0.527880   318A      0.529128  
     319A      0.532313   320A      0.534108   321A      0.535350  
     322A      0.536173   323A      0.540327   324A      0.542912  
     325A      0.543635   326A      0.545567   327A      0.551341  
     328A      0.555204   329A      0.556683   330A      0.557509  
     331A      0.560494   332A      0.560907   333A      0.561852  
     334A      0.565086   335A      0.566695   336A      0.567432  
     337A      0.570046   338A      0.572577   339A      0.575583  
     340A      0.576889   341A      0.579657   342A      0.581202  
     343A      0.582900   344A      0.584951   345A      0.585940  
     346A      0.587954   347A      0.589805   348A      0.594177  
     349A      0.597425   350A      0.598081   351A      0.599273  
     352A      0.605646   353A      0.606838   354A      0.609426  
     355A      0.611943   356A      0.612763   357A      0.616418  
     358A      0.617251   359A      0.625585   360A      0.626787  
     361A      0.627356   362A      0.631238   363A      0.637173  
     364A      0.638309   365A      0.647159   366A      0.648187  
     367A      0.648789   368A      0.651593   369A      0.653436  
     370A      0.655053   371A      0.655261   372A      0.659372  
     373A      0.660180   374A      0.664906   375A      0.667852  
     376A      0.668329   377A      0.670680   378A      0.673740  
     379A      0.673886   380A      0.679128   381A      0.680588  
     382A      0.684034   383A      0.685730   384A      0.686845  
     385A      0.693073   386A      0.699600   387A      0.700959  
     388A      0.702313   389A      0.704384   390A      0.706790  
     391A      0.711064   392A      0.711818   393A      0.712994  
     394A      0.714079   395A      0.719943   396A      0.725432  
     397A      0.727082   398A      0.728196   399A      0.735656  
     400A      0.737776   401A      0.737991   402A      0.740304  
     403A      0.743127   404A      0.746252   405A      0.750225  
     406A      0.751787   407A      0.754944   408A      0.758212  
     409A      0.759281   410A      0.760938   411A      0.765865  
     412A      0.766495   413A      0.767609   414A      0.772451  
     415A      0.774034   416A      0.776594   417A      0.779865  
     418A      0.782223   419A      0.790364   420A      0.791984  
     421A      0.793024   422A      0.795641   423A      0.797211  
     424A      0.798776   425A      0.805561   426A      0.810089  
     427A      0.812580   428A      0.815313   429A      0.819319  
     430A      0.825665   431A      0.827866   432A      0.829872  
     433A      0.832865   434A      0.834347   435A      0.836255  
     436A      0.841723   437A      0.842286   438A      0.845742  
     439A      0.851073   440A      0.855055   441A      0.856080  
     442A      0.857884   443A      0.859229   444A      0.864105  
     445A      0.866412   446A      0.867258   447A      0.871636  
     448A      0.875918   449A      0.877264   450A      0.877275  
     451A      0.880825   452A      0.883463   453A      0.883612  
     454A      0.888480   455A      0.889944   456A      0.890040  
     457A      0.895776   458A      0.897954   459A      0.900300  
     460A      0.904979   461A      0.906651   462A      0.908645  
     463A      0.911278   464A      0.913084   465A      0.915088  
     466A      0.917781   467A      0.921237   468A      0.923824  
     469A      0.924664   470A      0.926850   471A      0.932090  
     472A      0.933267   473A      0.937793   474A      0.941857  
     475A      0.942562   476A      0.944219   477A      0.945414  
     478A      0.946656   479A      0.949965   480A      0.952571  
     481A      0.952736   482A      0.955379   483A      0.957503  
     484A      0.958727   485A      0.961089   486A      0.964808  
     487A      0.967531   488A      0.969694   489A      0.971699  
     490A      0.972125   491A      0.976601   492A      0.978539  
     493A      0.982333   494A      0.983989   495A      0.985244  
     496A      0.987483   497A      0.989404   498A      0.990713  
     499A      0.992968   500A      0.995921   501A      0.996948  
     502A      1.000541   503A      1.003540   504A      1.007770  
     505A      1.011263   506A      1.012147   507A      1.016096  
     508A      1.020287   509A      1.024296   510A      1.025839  
     511A      1.030032   512A      1.030317   513A      1.030937  
     514A      1.032304   515A      1.033073   516A      1.034064  
     517A      1.037610   518A      1.037995   519A      1.038678  
     520A      1.042817   521A      1.044878   522A      1.047457  
     523A      1.048171   524A      1.051102   525A      1.054276  
     526A      1.055343   527A      1.059125   528A      1.060221  
     529A      1.063386   530A      1.064465   531A      1.065893  
     532A      1.071754   533A      1.073127   534A      1.078137  
     535A      1.079475   536A      1.080492   537A      1.083880  
     538A      1.086479   539A      1.087669   540A      1.087814  
     541A      1.091441   542A      1.094259   543A      1.099355  
     544A      1.102402   545A      1.102645   546A      1.103163  
     547A      1.105749   548A      1.109211   549A      1.110111  
     550A      1.114672   551A      1.115917   552A      1.122056  
     553A      1.123965   554A      1.124076   555A      1.125748  
     556A      1.127474   557A      1.128437   558A      1.133547  
     559A      1.134381   560A      1.136198   561A      1.139258  
     562A      1.140038   563A      1.141507   564A      1.144878  
     565A      1.149596   566A      1.152094   567A      1.153954  
     568A      1.154732   569A      1.157765   570A      1.160956  
     571A      1.162948   572A      1.166143   573A      1.167085  
     574A      1.167586   575A      1.168206   576A      1.171830  
     577A      1.173688   578A      1.174491   579A      1.176000  
     580A      1.178051   581A      1.182765   582A      1.184718  
     583A      1.187671   584A      1.191104   585A      1.194799  
     586A      1.196094   587A      1.196877   588A      1.198135  
     589A      1.199440   590A      1.202337   591A      1.204409  
     592A      1.207232   593A      1.207940   594A      1.211204  
     595A      1.212198   596A      1.218020   597A      1.220656  
     598A      1.224151   599A      1.231656   600A      1.234765  
     601A      1.235220   602A      1.236160   603A      1.238049  
     604A      1.242498   605A      1.243175   606A      1.247266  
     607A      1.249114   608A      1.249377   609A      1.252170  
     610A      1.255011   611A      1.257701   612A      1.259250  
     613A      1.263464   614A      1.266778   615A      1.269200  
     616A      1.270439   617A      1.273112   618A      1.276936  
     619A      1.279481   620A      1.282459   621A      1.284307  
     622A      1.284631   623A      1.286977   624A      1.291445  
     625A      1.297093   626A      1.300287   627A      1.302456  
     628A      1.306883   629A      1.307476   630A      1.308650  
     631A      1.310648   632A      1.311061   633A      1.314214  
     634A      1.315972   635A      1.322720   636A      1.329069  
     637A      1.329892   638A      1.332666   639A      1.333955  
     640A      1.337539   641A      1.338380   642A      1.347274  
     643A      1.351919   644A      1.353381   645A      1.358780  
     646A      1.359734   647A      1.362296   648A      1.364406  
     649A      1.365193   650A      1.371779   651A      1.374938  
     652A      1.378960   653A      1.380621   654A      1.384515  
     655A      1.389989   656A      1.394853   657A      1.395591  
     658A      1.402016   659A      1.404391   660A      1.406647  
     661A      1.410582   662A      1.414773   663A      1.419092  
     664A      1.419440   665A      1.424636   666A      1.432408  
     667A      1.436771   668A      1.441671   669A      1.448516  
     670A      1.453920   671A      1.455893   672A      1.458318  
     673A      1.465269   674A      1.474245   675A      1.480166  
     676A      1.487511   677A      1.488321   678A      1.494633  
     679A      1.498113   680A      1.499930   681A      1.502862  
     682A      1.503571   683A      1.507771   684A      1.508964  
     685A      1.511180   686A      1.513663   687A      1.520486  
     688A      1.524622   689A      1.525606   690A      1.527528  
     691A      1.536733   692A      1.537417   693A      1.537636  
     694A      1.539354   695A      1.545073   696A      1.545430  
     697A      1.550326   698A      1.558817   699A      1.564471  
     700A      1.569368   701A      1.576330   702A      1.578129  
     703A      1.579670   704A      1.585825   705A      1.586795  
     706A      1.592939   707A      1.597147   708A      1.597651  
     709A      1.600451   710A      1.603935   711A      1.610005  
     712A      1.610708   713A      1.620364   714A      1.622504  
     715A      1.627312   716A      1.628755   717A      1.630608  
     718A      1.635610   719A      1.638202   720A      1.642712  
     721A      1.650749   722A      1.654904   723A      1.656401  
     724A      1.657151   725A      1.659524   726A      1.663418  
     727A      1.672144   728A      1.674714   729A      1.683192  
     730A      1.683620   731A      1.686007   732A      1.690149  
     733A      1.692265   734A      1.695686   735A      1.701035  
     736A      1.707223   737A      1.709240   738A      1.709340  
     739A      1.719781   740A      1.723815   741A      1.727125  
     742A      1.730526   743A      1.731649   744A      1.734160  
     745A      1.735511   746A      1.737516   747A      1.743568  
     748A      1.748259   749A      1.752353   750A      1.755534  
     751A      1.757951   752A      1.763153   753A      1.767774  
     754A      1.768345   755A      1.769692   756A      1.771927  
     757A      1.776415   758A      1.782169   759A      1.782577  
     760A      1.783382   761A      1.788582   762A      1.789089  
     763A      1.789097   764A      1.790796   765A      1.791630  
     766A      1.800930   767A      1.802197   768A      1.807051  
     769A      1.810610   770A      1.817959   771A      1.820282  
     772A      1.821233   773A      1.822600   774A      1.830589  
     775A      1.831916   776A      1.840221   777A      1.841094  
     778A      1.841657   779A      1.846292   780A      1.847804  
     781A      1.849038   782A      1.856283   783A      1.860339  
     784A      1.864383   785A      1.869203   786A      1.870768  
     787A      1.875119   788A      1.875761   789A      1.880237  
     790A      1.887914   791A      1.892973   792A      1.893952  
     793A      1.903803   794A      1.906000   795A      1.907914  
     796A      1.910967   797A      1.918235   798A      1.920696  
     799A      1.924691   800A      1.927717   801A      1.930333  
     802A      1.935706   803A      1.937464   804A      1.942638  
     805A      1.943960   806A      1.946096   807A      1.951013  
     808A      1.956104   809A      1.956424   810A      1.959958  
     811A      1.961788   812A      1.963842   813A      1.966692  
     814A      1.974656   815A      1.975130   816A      1.976231  
     817A      1.984723   818A      1.986402   819A      1.990546  
     820A      1.993810   821A      1.994831   822A      1.995193  
     823A      1.997576   824A      1.997851   825A      2.001714  
     826A      2.006133   827A      2.006747   828A      2.011267  
     829A      2.011641   830A      2.015787   831A      2.024306  
     832A      2.025156   833A      2.028541   834A      2.031733  
     835A      2.035033   836A      2.036615   837A      2.039012  
     838A      2.041094   839A      2.045385   840A      2.045547  
     841A      2.048596   842A      2.052307   843A      2.055402  
     844A      2.056114   845A      2.060159   846A      2.063445  
     847A      2.066142   848A      2.066597   849A      2.069465  
     850A      2.073778   851A      2.075183   852A      2.075657  
     853A      2.081172   854A      2.082818   855A      2.083242  
     856A      2.085841   857A      2.089157   858A      2.089286  
     859A      2.091182   860A      2.094141   861A      2.095525  
     862A      2.096066   863A      2.100935   864A      2.105745  
     865A      2.107115   866A      2.111363   867A      2.113983  
     868A      2.115240   869A      2.118386   870A      2.120518  
     871A      2.125296   872A      2.129279   873A      2.131521  
     874A      2.133270   875A      2.135769   876A      2.143213  
     877A      2.147037   878A      2.148432   879A      2.148705  
     880A      2.150781   881A      2.155285   882A      2.156638  
     883A      2.162461   884A      2.163719   885A      2.166583  
     886A      2.167591   887A      2.171461   888A      2.172491  
     889A      2.173488   890A      2.175708   891A      2.178088  
     892A      2.178450   893A      2.184399   894A      2.184808  
     895A      2.187229   896A      2.192378   897A      2.192930  
     898A      2.196924   899A      2.200015   900A      2.202621  
     901A      2.205820   902A      2.206421   903A      2.209743  
     904A      2.212898   905A      2.213344   906A      2.216687  
     907A      2.221124   908A      2.223926   909A      2.225734  
     910A      2.227321   911A      2.227759   912A      2.233128  
     913A      2.239379   914A      2.242284   915A      2.245231  
     916A      2.246549   917A      2.249110   918A      2.250466  
     919A      2.254314   920A      2.258494   921A      2.261721  
     922A      2.263357   923A      2.264311   924A      2.265120  
     925A      2.267573   926A      2.268242   927A      2.270634  
     928A      2.277013   929A      2.279614   930A      2.280887  
     931A      2.281241   932A      2.283333   933A      2.283729  
     934A      2.291020   935A      2.295059   936A      2.296919  
     937A      2.298421   938A      2.302674   939A      2.303881  
     940A      2.307144   941A      2.308739   942A      2.309482  
     943A      2.310821   944A      2.317496   945A      2.320254  
     946A      2.320364   947A      2.326968   948A      2.327369  
     949A      2.330093   950A      2.333113   951A      2.334111  
     952A      2.341201   953A      2.342807   954A      2.346903  
     955A      2.348756   956A      2.351017   957A      2.355158  
     958A      2.355411   959A      2.356745   960A      2.357854  
     961A      2.359854   962A      2.363657   963A      2.369525  
     964A      2.371052   965A      2.371997   966A      2.376170  
     967A      2.381461   968A      2.384656   969A      2.386994  
     970A      2.387980   971A      2.389213   972A      2.389385  
     973A      2.389757   974A      2.392833   975A      2.395565  
     976A      2.400704   977A      2.401931   978A      2.405192  
     979A      2.406124   980A      2.408138   981A      2.410725  
     982A      2.412272   983A      2.413459   984A      2.417524  
     985A      2.418314   986A      2.422046   987A      2.422508  
     988A      2.425490   989A      2.431162   990A      2.432845  
     991A      2.434589   992A      2.437537   993A      2.441816  
     994A      2.442806   995A      2.450848   996A      2.451037  
     997A      2.451730   998A      2.452676   999A      2.453863  
    1000A      2.456086  1001A      2.458614  1002A      2.463576  
    1003A      2.464308  1004A      2.468148  1005A      2.469533  
    1006A      2.473142  1007A      2.475902  1008A      2.480366  
    1009A      2.484623  1010A      2.486376  1011A      2.489828  
    1012A      2.490982  1013A      2.494184  1014A      2.495913  
    1015A      2.499790  1016A      2.501212  1017A      2.503927  
    1018A      2.503933  1019A      2.508245  1020A      2.513186  
    1021A      2.514636  1022A      2.516573  1023A      2.518519  
    1024A      2.518819  1025A      2.520199  1026A      2.522794  
    1027A      2.525799  1028A      2.526240  1029A      2.529117  
    1030A      2.535224  1031A      2.537139  1032A      2.538078  
    1033A      2.541600  1034A      2.547561  1035A      2.548964  
    1036A      2.549044  1037A      2.552602  1038A      2.555634  
    1039A      2.555890  1040A      2.556953  1041A      2.564537  
    1042A      2.565821  1043A      2.571192  1044A      2.571845  
    1045A      2.575351  1046A      2.578018  1047A      2.585768  
    1048A      2.585909  1049A      2.588475  1050A      2.590485  
    1051A      2.592013  1052A      2.593354  1053A      2.593892  
    1054A      2.596257  1055A      2.600057  1056A      2.602789  
    1057A      2.603250  1058A      2.605783  1059A      2.607059  
    1060A      2.607157  1061A      2.611140  1062A      2.612599  
    1063A      2.616522  1064A      2.617120  1065A      2.621276  
    1066A      2.624441  1067A      2.625843  1068A      2.627295  
    1069A      2.629346  1070A      2.634045  1071A      2.634913  
    1072A      2.638818  1073A      2.639671  1074A      2.641275  
    1075A      2.642635  1076A      2.646293  1077A      2.648184  
    1078A      2.650811  1079A      2.652822  1080A      2.653495  
    1081A      2.656073  1082A      2.657758  1083A      2.663441  
    1084A      2.666324  1085A      2.667043  1086A      2.669004  
    1087A      2.671561  1088A      2.675000  1089A      2.680100  
    1090A      2.680901  1091A      2.686465  1092A      2.689517  
    1093A      2.693557  1094A      2.693701  1095A      2.696562  
    1096A      2.699366  1097A      2.700864  1098A      2.701318  
    1099A      2.703941  1100A      2.705093  1101A      2.711971  
    1102A      2.712144  1103A      2.721870  1104A      2.725157  
    1105A      2.729290  1106A      2.731467  1107A      2.734573  
    1108A      2.739193  1109A      2.742470  1110A      2.745495  
    1111A      2.746148  1112A      2.746383  1113A      2.747205  
    1114A      2.750211  1115A      2.752591  1116A      2.760194  
    1117A      2.761869  1118A      2.763275  1119A      2.764556  
    1120A      2.766593  1121A      2.767923  1122A      2.771692  
    1123A      2.772392  1124A      2.780571  1125A      2.782242  
    1126A      2.784066  1127A      2.784241  1128A      2.785158  
    1129A      2.788036  1130A      2.789889  1131A      2.792840  
    1132A      2.796127  1133A      2.801630  1134A      2.802121  
    1135A      2.804896  1136A      2.806771  1137A      2.810307  
    1138A      2.811398  1139A      2.819567  1140A      2.819843  
    1141A      2.822499  1142A      2.826506  1143A      2.830241  
    1144A      2.832017  1145A      2.837859  1146A      2.842812  
    1147A      2.843297  1148A      2.843940  1149A      2.849732  
    1150A      2.854170  1151A      2.856030  1152A      2.860475  
    1153A      2.865261  1154A      2.866347  1155A      2.868554  
    1156A      2.869029  1157A      2.869264  1158A      2.871642  
    1159A      2.878953  1160A      2.881510  1161A      2.882566  
    1162A      2.889051  1163A      2.889746  1164A      2.889903  
    1165A      2.894171  1166A      2.899613  1167A      2.901597  
    1168A      2.908533  1169A      2.911191  1170A      2.912805  
    1171A      2.914325  1172A      2.918703  1173A      2.920789  
    1174A      2.929371  1175A      2.929612  1176A      2.934756  
    1177A      2.940186  1178A      2.942903  1179A      2.943367  
    1180A      2.945424  1181A      2.948739  1182A      2.951722  
    1183A      2.952800  1184A      2.953133  1185A      2.957399  
    1186A      2.959801  1187A      2.964598  1188A      2.967550  
    1189A      2.968266  1190A      2.974771  1191A      2.974820  
    1192A      2.978957  1193A      2.982077  1194A      2.983246  
    1195A      2.983358  1196A      2.988182  1197A      2.990513  
    1198A      2.995993  1199A      3.001489  1200A      3.005195  
    1201A      3.008808  1202A      3.010161  1203A      3.011119  
    1204A      3.014992  1205A      3.017865  1206A      3.022652  
    1207A      3.023746  1208A      3.025016  1209A      3.027125  
    1210A      3.030660  1211A      3.034943  1212A      3.036766  
    1213A      3.042327  1214A      3.044478  1215A      3.046251  
    1216A      3.047145  1217A      3.054288  1218A      3.055385  
    1219A      3.056517  1220A      3.059266  1221A      3.062192  
    1222A      3.064527  1223A      3.068955  1224A      3.070357  
    1225A      3.077142  1226A      3.080452  1227A      3.081542  
    1228A      3.084578  1229A      3.085791  1230A      3.089721  
    1231A      3.090166  1232A      3.096157  1233A      3.100566  
    1234A      3.101798  1235A      3.104187  1236A      3.104966  
    1237A      3.108863  1238A      3.111503  1239A      3.116052  
    1240A      3.120783  1241A      3.122723  1242A      3.125768  
    1243A      3.126300  1244A      3.127915  1245A      3.131404  
    1246A      3.133112  1247A      3.136144  1248A      3.136230  
    1249A      3.137471  1250A      3.146867  1251A      3.147474  
    1252A      3.148331  1253A      3.155057  1254A      3.156859  
    1255A      3.160589  1256A      3.162960  1257A      3.164749  
    1258A      3.170667  1259A      3.179245  1260A      3.180195  
    1261A      3.184247  1262A      3.185334  1263A      3.185613  
    1264A      3.191608  1265A      3.195253  1266A      3.200582  
    1267A      3.203063  1268A      3.203705  1269A      3.211773  
    1270A      3.215472  1271A      3.216124  1272A      3.217146  
    1273A      3.224869  1274A      3.225087  1275A      3.232431  
    1276A      3.233812  1277A      3.238905  1278A      3.242873  
    1279A      3.244291  1280A      3.250208  1281A      3.254342  
    1282A      3.257229  1283A      3.258927  1284A      3.263420  
    1285A      3.263978  1286A      3.271044  1287A      3.273453  
    1288A      3.274632  1289A      3.275764  1290A      3.284460  
    1291A      3.288620  1292A      3.293033  1293A      3.297876  
    1294A      3.301643  1295A      3.303099  1296A      3.311791  
    1297A      3.313688  1298A      3.314866  1299A      3.315954  
    1300A      3.317357  1301A      3.325383  1302A      3.325799  
    1303A      3.327786  1304A      3.328003  1305A      3.330527  
    1306A      3.333036  1307A      3.338177  1308A      3.338878  
    1309A      3.346373  1310A      3.349235  1311A      3.361451  
    1312A      3.363156  1313A      3.365087  1314A      3.365580  
    1315A      3.367476  1316A      3.369578  1317A      3.375573  
    1318A      3.375858  1319A      3.379198  1320A      3.382780  
    1321A      3.385382  1322A      3.390601  1323A      3.394033  
    1324A      3.398403  1325A      3.399320  1326A      3.403601  
    1327A      3.405685  1328A      3.406749  1329A      3.409024  
    1330A      3.409630  1331A      3.412425  1332A      3.415459  
    1333A      3.422186  1334A      3.424941  1335A      3.426090  
    1336A      3.431720  1337A      3.435018  1338A      3.436658  
    1339A      3.437879  1340A      3.442060  1341A      3.442714  
    1342A      3.444487  1343A      3.451292  1344A      3.456080  
    1345A      3.456701  1346A      3.466045  1347A      3.468491  
    1348A      3.470266  1349A      3.476087  1350A      3.477083  
    1351A      3.479852  1352A      3.482733  1353A      3.490498  
    1354A      3.492120  1355A      3.495007  1356A      3.495749  
    1357A      3.500841  1358A      3.505003  1359A      3.505708  
    1360A      3.506273  1361A      3.509108  1362A      3.513543  
    1363A      3.516735  1364A      3.518816  1365A      3.520265  
    1366A      3.523528  1367A      3.531391  1368A      3.531607  
    1369A      3.535574  1370A      3.542922  1371A      3.544263  
    1372A      3.545201  1373A      3.546734  1374A      3.554410  
    1375A      3.555373  1376A      3.565512  1377A      3.568801  
    1378A      3.569981  1379A      3.570916  1380A      3.578583  
    1381A      3.581376  1382A      3.584559  1383A      3.586639  
    1384A      3.589509  1385A      3.595376  1386A      3.596843  
    1387A      3.600789  1388A      3.603992  1389A      3.604478  
    1390A      3.607364  1391A      3.610668  1392A      3.613036  
    1393A      3.616043  1394A      3.617754  1395A      3.622506  
    1396A      3.628550  1397A      3.630721  1398A      3.630887  
    1399A      3.634576  1400A      3.635515  1401A      3.642230  
    1402A      3.643110  1403A      3.643714  1404A      3.645621  
    1405A      3.646208  1406A      3.654944  1407A      3.662449  
    1408A      3.662966  1409A      3.665860  1410A      3.667551  
    1411A      3.670582  1412A      3.671544  1413A      3.672879  
    1414A      3.677285  1415A      3.677709  1416A      3.687311  
    1417A      3.692995  1418A      3.698846  1419A      3.699700  
    1420A      3.701525  1421A      3.702459  1422A      3.711873  
    1423A      3.712374  1424A      3.718872  1425A      3.730131  
    1426A      3.731347  1427A      3.736046  1428A      3.739899  
    1429A      3.742296  1430A      3.749631  1431A      3.751629  
    1432A      3.755337  1433A      3.757698  1434A      3.759771  
    1435A      3.764145  1436A      3.764622  1437A      3.765834  
    1438A      3.768457  1439A      3.773857  1440A      3.775380  
    1441A      3.776448  1442A      3.780383  1443A      3.783748  
    1444A      3.790445  1445A      3.795515  1446A      3.797993  
    1447A      3.800287  1448A      3.803534  1449A      3.806557  
    1450A      3.810716  1451A      3.815636  1452A      3.816881  
    1453A      3.821993  1454A      3.830196  1455A      3.831150  
    1456A      3.834806  1457A      3.835210  1458A      3.838211  
    1459A      3.839661  1460A      3.841292  1461A      3.845078  
    1462A      3.847783  1463A      3.851326  1464A      3.855610  
    1465A      3.857036  1466A      3.859320  1467A      3.860438  
    1468A      3.862173  1469A      3.865560  1470A      3.866746  
    1471A      3.868017  1472A      3.873107  1473A      3.875180  
    1474A      3.880710  1475A      3.881026  1476A      3.886025  
    1477A      3.887626  1478A      3.903197  1479A      3.908515  
    1480A      3.911209  1481A      3.912751  1482A      3.919774  
    1483A      3.921774  1484A      3.923042  1485A      3.930568  
    1486A      3.933308  1487A      3.934979  1488A      3.935440  
    1489A      3.937563  1490A      3.939780  1491A      3.949495  
    1492A      3.954417  1493A      3.955917  1494A      3.958872  
    1495A      3.959459  1496A      3.961765  1497A      3.965129  
    1498A      3.974415  1499A      3.978948  1500A      3.980157  
    1501A      3.983139  1502A      3.987983  1503A      3.995192  
    1504A      3.995335  1505A      3.997964  1506A      3.999230  
    1507A      4.004575  1508A      4.006483  1509A      4.009555  
    1510A      4.017987  1511A      4.022307  1512A      4.026108  
    1513A      4.029714  1514A      4.033723  1515A      4.039399  
    1516A      4.045138  1517A      4.046844  1518A      4.062595  
    1519A      4.065432  1520A      4.066551  1521A      4.071862  
    1522A      4.073640  1523A      4.074116  1524A      4.074408  
    1525A      4.078103  1526A      4.086267  1527A      4.088073  
    1528A      4.090784  1529A      4.091781  1530A      4.102076  
    1531A      4.102843  1532A      4.105445  1533A      4.117107  
    1534A      4.123090  1535A      4.124036  1536A      4.131737  
    1537A      4.134590  1538A      4.138427  1539A      4.142464  
    1540A      4.143370  1541A      4.146121  1542A      4.148659  
    1543A      4.155226  1544A      4.156581  1545A      4.157688  
    1546A      4.168285  1547A      4.172011  1548A      4.174098  
    1549A      4.175578  1550A      4.183547  1551A      4.185351  
    1552A      4.187553  1553A      4.187862  1554A      4.194091  
    1555A      4.197257  1556A      4.201279  1557A      4.203225  
    1558A      4.209381  1559A      4.211588  1560A      4.214341  
    1561A      4.218795  1562A      4.224128  1563A      4.225735  
    1564A      4.234055  1565A      4.237930  1566A      4.239789  
    1567A      4.240207  1568A      4.246674  1569A      4.258605  
    1570A      4.259164  1571A      4.262587  1572A      4.263117  
    1573A      4.265070  1574A      4.265726  1575A      4.267372  
    1576A      4.279683  1577A      4.283114  1578A      4.292906  
    1579A      4.295131  1580A      4.303150  1581A      4.307279  
    1582A      4.311419  1583A      4.313405  1584A      4.314987  
    1585A      4.318317  1586A      4.323652  1587A      4.325520  
    1588A      4.329754  1589A      4.333713  1590A      4.340722  
    1591A      4.341718  1592A      4.343516  1593A      4.345035  
    1594A      4.347870  1595A      4.357608  1596A      4.368490  
    1597A      4.372601  1598A      4.376006  1599A      4.386390  
    1600A      4.387021  1601A      4.388199  1602A      4.392109  
    1603A      4.398670  1604A      4.406980  1605A      4.410976  
    1606A      4.411833  1607A      4.417704  1608A      4.420067  
    1609A      4.423890  1610A      4.424650  1611A      4.431427  
    1612A      4.434613  1613A      4.442096  1614A      4.443390  
    1615A      4.444416  1616A      4.451161  1617A      4.459266  
    1618A      4.462664  1619A      4.472088  1620A      4.473451  
    1621A      4.474729  1622A      4.478442  1623A      4.486601  
    1624A      4.493966  1625A      4.495210  1626A      4.498685  
    1627A      4.504826  1628A      4.505011  1629A      4.510889  
    1630A      4.518143  1631A      4.520720  1632A      4.524106  
    1633A      4.530242  1634A      4.531026  1635A      4.535168  
    1636A      4.542140  1637A      4.546412  1638A      4.549706  
    1639A      4.557379  1640A      4.562422  1641A      4.563658  
    1642A      4.568756  1643A      4.583698  1644A      4.589179  
    1645A      4.591966  1646A      4.598109  1647A      4.602648  
    1648A      4.606416  1649A      4.611656  1650A      4.615501  
    1651A      4.617878  1652A      4.629108  1653A      4.634409  
    1654A      4.636758  1655A      4.637356  1656A      4.640432  
    1657A      4.647185  1658A      4.647285  1659A      4.653327  
    1660A      4.661133  1661A      4.666360  1662A      4.672822  
    1663A      4.673841  1664A      4.686098  1665A      4.689946  
    1666A      4.694268  1667A      4.698575  1668A      4.702709  
    1669A      4.703042  1670A      4.708265  1671A      4.715662  
    1672A      4.716728  1673A      4.722709  1674A      4.730229  
    1675A      4.735014  1676A      4.738806  1677A      4.745893  
    1678A      4.749506  1679A      4.753437  1680A      4.758029  
    1681A      4.771784  1682A      4.774401  1683A      4.780912  
    1684A      4.785520  1685A      4.795157  1686A      4.806066  
    1687A      4.812763  1688A      4.816121  1689A      4.817595  
    1690A      4.821899  1691A      4.824271  1692A      4.828000  
    1693A      4.831860  1694A      4.836049  1695A      4.839147  
    1696A      4.849270  1697A      4.852045  1698A      4.866039  
    1699A      4.866732  1700A      4.874085  1701A      4.882302  
    1702A      4.885658  1703A      4.889273  1704A      4.894171  
    1705A      4.895594  1706A      4.907356  1707A      4.916902  
    1708A      4.921851  1709A      4.924500  1710A      4.925162  
    1711A      4.926387  1712A      4.960368  1713A      4.964116  
    1714A      4.981492  1715A      4.989648  1716A      4.991573  
    1717A      4.999309  1718A      4.999382  1719A      5.001215  
    1720A      5.017183  1721A      5.028071  1722A      5.034115  
    1723A      5.035081  1724A      5.055418  1725A      5.068975  
    1726A      5.072140  1727A      5.080256  1728A      5.086470  
    1729A      5.092766  1730A      5.094508  1731A      5.120096  
    1732A      5.126547  1733A      5.131902  1734A      5.148782  
    1735A      5.163192  1736A      5.165078  1737A      5.179674  
    1738A      5.184838  1739A      5.190232  1740A      5.214115  
    1741A      5.242649  1742A      5.259501  1743A      5.261825  
    1744A      5.284385  1745A      5.287710  1746A      5.293336  
    1747A      5.305884  1748A      5.307792  1749A      5.313641  
    1750A      5.324897  1751A      5.338981  1752A      5.345391  
    1753A      5.355134  1754A      5.363213  1755A      5.369449  
    1756A      5.380795  1757A      5.382156  1758A      5.382799  
    1759A      5.388013  1760A      5.391178  1761A      5.401263  
    1762A      5.405128  1763A      5.410403  1764A      5.438462  
    1765A      5.440913  1766A      5.457685  1767A      5.461267  
    1768A      5.464167  1769A      5.483039  1770A      5.506156  
    1771A      5.507628  1772A      5.510550  1773A      5.520861  
    1774A      5.538278  1775A      5.559017  1776A      5.560358  
    1777A      5.566718  1778A      5.567579  1779A      5.580418  
    1780A      5.588842  1781A      5.595494  1782A      5.595610  
    1783A      5.597910  1784A      5.599023  1785A      5.608274  
    1786A      5.617764  1787A      5.623068  1788A      5.627814  
    1789A      5.638577  1790A      5.664482  1791A      5.670615  
    1792A      5.685440  1793A      5.689415  1794A      5.697930  
    1795A      5.703309  1796A      5.706305  1797A      5.714996  
    1798A      5.715697  1799A      5.728703  1800A      5.734348  
    1801A      5.748349  1802A      5.753516  1803A      5.753841  
    1804A      5.755609  1805A      5.762387  1806A      5.763854  
    1807A      5.773580  1808A      5.773823  1809A      5.775573  
    1810A      5.780424  1811A      5.782108  1812A      5.784167  
    1813A      5.786510  1814A      5.791451  1815A      5.795745  
    1816A      5.804735  1817A      5.804894  1818A      5.814979  
    1819A      5.817484  1820A      5.834873  1821A      5.835890  
    1822A      5.844840  1823A      5.844933  1824A      5.855087  
    1825A      5.856848  1826A      5.861279  1827A      5.866254  
    1828A      5.873470  1829A      5.874640  1830A      5.875048  
    1831A      5.881727  1832A      5.889336  1833A      5.891720  
    1834A      5.893192  1835A      5.900027  1836A      5.903221  
    1837A      5.903659  1838A      5.906092  1839A      5.912648  
    1840A      5.918097  1841A      5.918152  1842A      5.922764  
    1843A      5.925375  1844A      5.936036  1845A      5.936334  
    1846A      5.949740  1847A      5.951130  1848A      5.953334  
    1849A      5.954210  1850A      5.960643  1851A      5.961519  
    1852A      5.964914  1853A      5.965625  1854A      5.975025  
    1855A      5.980666  1856A      5.981087  1857A      5.982624  
    1858A      5.987565  1859A      5.990691  1860A      5.996308  
    1861A      5.998952  1862A      6.000896  1863A      6.001464  
    1864A      6.007060  1865A      6.007351  1866A      6.012841  
    1867A      6.014132  1868A      6.015742  1869A      6.019596  
    1870A      6.023463  1871A      6.023975  1872A      6.030964  
    1873A      6.044096  1874A      6.044969  1875A      6.049934  
    1876A      6.050202  1877A      6.051028  1878A      6.051925  
    1879A      6.059536  1880A      6.065079  1881A      6.071174  
    1882A      6.073442  1883A      6.074832  1884A      6.083135  
    1885A      6.085965  1886A      6.086207  1887A      6.089340  
    1888A      6.095087  1889A      6.097357  1890A      6.099859  
    1891A      6.110085  1892A      6.111984  1893A      6.119850  
    1894A      6.123621  1895A      6.129386  1896A      6.135161  
    1897A      6.137760  1898A      6.137785  1899A      6.140053  
    1900A      6.140688  1901A      6.144788  1902A      6.149581  
    1903A      6.150149  1904A      6.151614  1905A      6.153118  
    1906A      6.157616  1907A      6.159824  1908A      6.161079  
    1909A      6.165999  1910A      6.169506  1911A      6.169910  
    1912A      6.171539  1913A      6.173446  1914A      6.176229  
    1915A      6.184762  1916A      6.186064  1917A      6.187682  
    1918A      6.188170  1919A      6.192826  1920A      6.194347  
    1921A      6.199838  1922A      6.200807  1923A      6.203457  
    1924A      6.204749  1925A      6.208172  1926A      6.214824  
    1927A      6.216483  1928A      6.218190  1929A      6.218503  
    1930A      6.223390  1931A      6.223574  1932A      6.225212  
    1933A      6.226968  1934A      6.231353  1935A      6.234066  
    1936A      6.236858  1937A      6.238796  1938A      6.241997  
    1939A      6.247380  1940A      6.248589  1941A      6.252892  
    1942A      6.254820  1943A      6.260623  1944A      6.261258  
    1945A      6.261411  1946A      6.263864  1947A      6.268353  
    1948A      6.274114  1949A      6.281183  1950A      6.283814  
    1951A      6.290768  1952A      6.295768  1953A      6.298936  
    1954A      6.300638  1955A      6.304887  1956A      6.305058  
    1957A      6.309487  1958A      6.313319  1959A      6.322039  
    1960A      6.325052  1961A      6.327112  1962A      6.330955  
    1963A      6.331554  1964A      6.336040  1965A      6.339088  
    1966A      6.340637  1967A      6.341917  1968A      6.343680  
    1969A      6.345478  1970A      6.346685  1971A      6.348311  
    1972A      6.356939  1973A      6.361315  1974A      6.362747  
    1975A      6.363905  1976A      6.368995  1977A      6.370740  
    1978A      6.370776  1979A      6.373476  1980A      6.375764  
    1981A      6.378869  1982A      6.388667  1983A      6.389090  
    1984A      6.390484  1985A      6.394190  1986A      6.396494  
    1987A      6.399825  1988A      6.400309  1989A      6.405026  
    1990A      6.405669  1991A      6.410847  1992A      6.411950  
    1993A      6.412345  1994A      6.416874  1995A      6.418399  
    1996A      6.421699  1997A      6.431418  1998A      6.434127  
    1999A      6.436060  2000A      6.439926  2001A      6.444350  
    2002A      6.445776  2003A      6.447839  2004A      6.448425  
    2005A      6.457564  2006A      6.458706  2007A      6.459919  
    2008A      6.462295  2009A      6.463243  2010A      6.465078  
    2011A      6.469135  2012A      6.471197  2013A      6.474890  
    2014A      6.476536  2015A      6.480180  2016A      6.482664  
    2017A      6.486476  2018A      6.492536  2019A      6.493330  
    2020A      6.493421  2021A      6.496645  2022A      6.498883  
    2023A      6.500494  2024A      6.503054  2025A      6.505969  
    2026A      6.506550  2027A      6.507794  2028A      6.511527  
    2029A      6.512826  2030A      6.517388  2031A      6.525499  
    2032A      6.526225  2033A      6.528855  2034A      6.533571  
    2035A      6.536287  2036A      6.543453  2037A      6.544371  
    2038A      6.553144  2039A      6.557733  2040A      6.558801  
    2041A      6.561137  2042A      6.569584  2043A      6.569906  
    2044A      6.572622  2045A      6.572841  2046A      6.581157  
    2047A      6.586887  2048A      6.587542  2049A      6.592363  
    2050A      6.598820  2051A      6.599004  2052A      6.602252  
    2053A      6.603930  2054A      6.605426  2055A      6.607494  
    2056A      6.610989  2057A      6.612198  2058A      6.617324  
    2059A      6.624217  2060A      6.624365  2061A      6.627198  
    2062A      6.628603  2063A      6.630940  2064A      6.634371  
    2065A      6.634996  2066A      6.638236  2067A      6.639549  
    2068A      6.642209  2069A      6.642581  2070A      6.648715  
    2071A      6.652205  2072A      6.656415  2073A      6.664979  
    2074A      6.666738  2075A      6.667665  2076A      6.673208  
    2077A      6.677671  2078A      6.679599  2079A      6.680898  
    2080A      6.684538  2081A      6.684834  2082A      6.692676  
    2083A      6.693616  2084A      6.697398  2085A      6.701345  
    2086A      6.702003  2087A      6.704607  2088A      6.706975  
    2089A      6.709617  2090A      6.714625  2091A      6.719542  
    2092A      6.720793  2093A      6.721951  2094A      6.724759  
    2095A      6.729943  2096A      6.733216  2097A      6.734345  
    2098A      6.736815  2099A      6.746156  2100A      6.748142  
    2101A      6.756106  2102A      6.758382  2103A      6.759335  
    2104A      6.765492  2105A      6.769596  2106A      6.770513  
    2107A      6.771284  2108A      6.782420  2109A      6.787611  
    2110A      6.791049  2111A      6.796935  2112A      6.798523  
    2113A      6.799024  2114A      6.799415  2115A      6.803161  
    2116A      6.803757  2117A      6.811851  2118A      6.818057  
    2119A      6.822257  2120A      6.828743  2121A      6.835049  
    2122A      6.836158  2123A      6.838296  2124A      6.838836  
    2125A      6.847495  2126A      6.847563  2127A      6.852426  
    2128A      6.857836  2129A      6.866722  2130A      6.869337  
    2131A      6.869544  2132A      6.877048  2133A      6.877814  
    2134A      6.884331  2135A      6.884820  2136A      6.889252  
    2137A      6.890228  2138A      6.900515  2139A      6.907518  
    2140A      6.908388  2141A      6.910510  2142A      6.920788  
    2143A      6.921763  2144A      6.923423  2145A      6.929843  
    2146A      6.931423  2147A      6.932215  2148A      6.937113  
    2149A      6.938016  2150A      6.940429  2151A      6.941887  
    2152A      6.954109  2153A      6.963182  2154A      6.969155  
    2155A      6.969954  2156A      6.976459  2157A      6.978567  
    2158A      6.985020  2159A      6.988456  2160A      6.992445  
    2161A      6.998628  2162A      7.008956  2163A      7.010240  
    2164A      7.011675  2165A      7.015996  2166A      7.020396  
    2167A      7.022120  2168A      7.032833  2169A      7.033457  
    2170A      7.040589  2171A      7.049015  2172A      7.052824  
    2173A      7.055263  2174A      7.060291  2175A      7.064558  
    2176A      7.067862  2177A      7.068295  2178A      7.071559  
    2179A      7.081468  2180A      7.086533  2181A      7.089170  
    2182A      7.089300  2183A      7.091091  2184A      7.091750  
    2185A      7.093730  2186A      7.096078  2187A      7.098309  
    2188A      7.104406  2189A      7.113026  2190A      7.119052  
    2191A      7.121814  2192A      7.122822  2193A      7.129245  
    2194A      7.132683  2195A      7.136608  2196A      7.141352  
    2197A      7.145031  2198A      7.149205  2199A      7.154396  
    2200A      7.159339  2201A      7.159874  2202A      7.168594  
    2203A      7.168973  2204A      7.172526  2205A      7.178061  
    2206A      7.180170  2207A      7.186808  2208A      7.193419  
    2209A      7.194314  2210A      7.197563  2211A      7.199724  
    2212A      7.200851  2213A      7.206843  2214A      7.208448  
    2215A      7.213860  2216A      7.226470  2217A      7.232508  
    2218A      7.246418  2219A      7.246607  2220A      7.248079  
    2221A      7.253876  2222A      7.255769  2223A      7.260171  
    2224A      7.260891  2225A      7.262158  2226A      7.265952  
    2227A      7.267930  2228A      7.271302  2229A      7.271932  
    2230A      7.282285  2231A      7.285409  2232A      7.286311  
    2233A      7.287265  2234A      7.298435  2235A      7.306637  
    2236A      7.306791  2237A      7.316902  2238A      7.318699  
    2239A      7.318810  2240A      7.331062  2241A      7.341301  
    2242A      7.346357  2243A      7.352779  2244A      7.364755  
    2245A      7.367532  2246A      7.368693  2247A      7.373752  
    2248A      7.375285  2249A      7.376243  2250A      7.378154  
    2251A      7.384829  2252A      7.390056  2253A      7.391726  
    2254A      7.397481  2255A      7.407804  2256A      7.410074  
    2257A      7.413482  2258A      7.414670  2259A      7.417236  
    2260A      7.426457  2261A      7.430323  2262A      7.434726  
    2263A      7.440347  2264A      7.446401  2265A      7.446928  
    2266A      7.448221  2267A      7.449750  2268A      7.453867  
    2269A      7.456766  2270A      7.457159  2271A      7.461470  
    2272A      7.461881  2273A      7.465302  2274A      7.470948  
    2275A      7.474379  2276A      7.481849  2277A      7.489047  
    2278A      7.493121  2279A      7.498612  2280A      7.503886  
    2281A      7.506984  2282A      7.507313  2283A      7.508762  
    2284A      7.517858  2285A      7.518709  2286A      7.520547  
    2287A      7.529415  2288A      7.532916  2289A      7.533969  
    2290A      7.535572  2291A      7.537481  2292A      7.538652  
    2293A      7.548690  2294A      7.555746  2295A      7.559427  
    2296A      7.564141  2297A      7.564376  2298A      7.568802  
    2299A      7.570290  2300A      7.577511  2301A      7.578563  
    2302A      7.583628  2303A      7.585800  2304A      7.592585  
    2305A      7.595406  2306A      7.600244  2307A      7.601768  
    2308A      7.606805  2309A      7.610052  2310A      7.612159  
    2311A      7.615454  2312A      7.617755  2313A      7.621833  
    2314A      7.626096  2315A      7.627445  2316A      7.628625  
    2317A      7.630599  2318A      7.632212  2319A      7.647044  
    2320A      7.651902  2321A      7.653716  2322A      7.660747  
    2323A      7.665381  2324A      7.665994  2325A      7.666934  
    2326A      7.673131  2327A      7.675801  2328A      7.679257  
    2329A      7.680742  2330A      7.686087  2331A      7.690694  
    2332A      7.691886  2333A      7.693943  2334A      7.696454  
    2335A      7.701028  2336A      7.703916  2337A      7.706282  
    2338A      7.709802  2339A      7.712297  2340A      7.722545  
    2341A      7.725101  2342A      7.728810  2343A      7.728903  
    2344A      7.730421  2345A      7.735341  2346A      7.738030  
    2347A      7.747718  2348A      7.750604  2349A      7.751171  
    2350A      7.753272  2351A      7.753474  2352A      7.760095  
    2353A      7.762036  2354A      7.766247  2355A      7.769238  
    2356A      7.772457  2357A      7.776890  2358A      7.779161  
    2359A      7.785356  2360A      7.786908  2361A      7.799499  
    2362A      7.803066  2363A      7.807637  2364A      7.808019  
    2365A      7.813563  2366A      7.817762  2367A      7.820768  
    2368A      7.825140  2369A      7.826081  2370A      7.836335  
    2371A      7.838456  2372A      7.841415  2373A      7.842818  
    2374A      7.846376  2375A      7.852508  2376A      7.853973  
    2377A      7.856480  2378A      7.857278  2379A      7.864165  
    2380A      7.866170  2381A      7.868540  2382A      7.871053  
    2383A      7.872484  2384A      7.874560  2385A      7.878789  
    2386A      7.879644  2387A      7.882371  2388A      7.887381  
    2389A      7.890539  2390A      7.891435  2391A      7.892532  
    2392A      7.900528  2393A      7.902584  2394A      7.908473  
    2395A      7.911209  2396A      7.913288  2397A      7.916546  
    2398A      7.918065  2399A      7.922292  2400A      7.922505  
    2401A      7.928215  2402A      7.931339  2403A      7.933789  
    2404A      7.936173  2405A      7.939140  2406A      7.944209  
    2407A      7.952880  2408A      7.958827  2409A      7.965667  
    2410A      7.970527  2411A      7.971872  2412A      7.972054  
    2413A      7.974719  2414A      7.978860  2415A      7.982466  
    2416A      7.988376  2417A      7.993872  2418A      7.997303  
    2419A      7.997854  2420A      8.000081  2421A      8.001278  
    2422A      8.006554  2423A      8.009766  2424A      8.010176  
    2425A      8.010203  2426A      8.017084  2427A      8.022559  
    2428A      8.028623  2429A      8.029630  2430A      8.032582  
    2431A      8.041115  2432A      8.042275  2433A      8.045774  
    2434A      8.047623  2435A      8.048939  2436A      8.050986  
    2437A      8.056342  2438A      8.057987  2439A      8.060395  
    2440A      8.066525  2441A      8.070014  2442A      8.070620  
    2443A      8.077440  2444A      8.077879  2445A      8.085453  
    2446A      8.094081  2447A      8.097332  2448A      8.101148  
    2449A      8.105129  2450A      8.105403  2451A      8.109856  
    2452A      8.115180  2453A      8.117245  2454A      8.118069  
    2455A      8.121857  2456A      8.129230  2457A      8.132707  
    2458A      8.134507  2459A      8.135322  2460A      8.135786  
    2461A      8.152047  2462A      8.154012  2463A      8.157640  
    2464A      8.162123  2465A      8.168782  2466A      8.173334  
    2467A      8.176908  2468A      8.181735  2469A      8.182388  
    2470A      8.184895  2471A      8.194865  2472A      8.195253  
    2473A      8.197389  2474A      8.199229  2475A      8.204425  
    2476A      8.209218  2477A      8.210378  2478A      8.212863  
    2479A      8.218636  2480A      8.220213  2481A      8.222089  
    2482A      8.223413  2483A      8.226782  2484A      8.233138  
    2485A      8.235190  2486A      8.236626  2487A      8.240827  
    2488A      8.242224  2489A      8.245196  2490A      8.247714  
    2491A      8.249970  2492A      8.253346  2493A      8.254668  
    2494A      8.255652  2495A      8.260763  2496A      8.263672  
    2497A      8.265151  2498A      8.268835  2499A      8.275354  
    2500A      8.276744  2501A      8.280392  2502A      8.282595  
    2503A      8.284790  2504A      8.285711  2505A      8.288117  
    2506A      8.290148  2507A      8.295896  2508A      8.296991  
    2509A      8.302172  2510A      8.304069  2511A      8.304244  
    2512A      8.309945  2513A      8.315156  2514A      8.321313  
    2515A      8.324589  2516A      8.330462  2517A      8.330508  
    2518A      8.332381  2519A      8.337504  2520A      8.339525  
    2521A      8.342923  2522A      8.347816  2523A      8.349525  
    2524A      8.350924  2525A      8.356409  2526A      8.359461  
    2527A      8.361039  2528A      8.366913  2529A      8.368630  
    2530A      8.372308  2531A      8.373658  2532A      8.381263  
    2533A      8.383938  2534A      8.384551  2535A      8.387605  
    2536A      8.390718  2537A      8.392573  2538A      8.393723  
    2539A      8.399001  2540A      8.400700  2541A      8.402737  
    2542A      8.407521  2543A      8.413487  2544A      8.415373  
    2545A      8.416502  2546A      8.416781  2547A      8.424552  
    2548A      8.425505  2549A      8.430039  2550A      8.433628  
    2551A      8.438623  2552A      8.440160  2553A      8.446288  
    2554A      8.446692  2555A      8.447211  2556A      8.457743  
    2557A      8.459129  2558A      8.463446  2559A      8.467062  
    2560A      8.468461  2561A      8.473188  2562A      8.476109  
    2563A      8.476376  2564A      8.480026  2565A      8.480224  
    2566A      8.484308  2567A      8.488676  2568A      8.490905  
    2569A      8.490957  2570A      8.494306  2571A      8.499003  
    2572A      8.501965  2573A      8.503491  2574A      8.505697  
    2575A      8.509339  2576A      8.519075  2577A      8.523154  
    2578A      8.524846  2579A      8.529750  2580A      8.533301  
    2581A      8.534518  2582A      8.535318  2583A      8.539979  
    2584A      8.539980  2585A      8.546556  2586A      8.548702  
    2587A      8.551045  2588A      8.552547  2589A      8.560131  
    2590A      8.560969  2591A      8.566469  2592A      8.567717  
    2593A      8.570319  2594A      8.575396  2595A      8.586313  
    2596A      8.591493  2597A      8.592215  2598A      8.595188  
    2599A      8.600175  2600A      8.600672  2601A      8.603449  
    2602A      8.608285  2603A      8.612144  2604A      8.615448  
    2605A      8.619821  2606A      8.622848  2607A      8.626414  
    2608A      8.631296  2609A      8.640105  2610A      8.643760  
    2611A      8.644990  2612A      8.645311  2613A      8.646287  
    2614A      8.656694  2615A      8.663354  2616A      8.666330  
    2617A      8.666967  2618A      8.667742  2619A      8.674813  
    2620A      8.678943  2621A      8.681317  2622A      8.682706  
    2623A      8.689460  2624A      8.692215  2625A      8.701713  
    2626A      8.705188  2627A      8.706761  2628A      8.708626  
    2629A      8.712538  2630A      8.716078  2631A      8.716717  
    2632A      8.718463  2633A      8.721641  2634A      8.734664  
    2635A      8.735320  2636A      8.737624  2637A      8.743097  
    2638A      8.744831  2639A      8.751340  2640A      8.757202  
    2641A      8.758679  2642A      8.762099  2643A      8.764575  
    2644A      8.767916  2645A      8.776979  2646A      8.783300  
    2647A      8.790895  2648A      8.798256  2649A      8.800828  
    2650A      8.803118  2651A      8.803816  2652A      8.805195  
    2653A      8.806889  2654A      8.806968  2655A      8.813961  
    2656A      8.815671  2657A      8.820365  2658A      8.828315  
    2659A      8.829792  2660A      8.834876  2661A      8.837683  
    2662A      8.839188  2663A      8.839218  2664A      8.850231  
    2665A      8.851484  2666A      8.857744  2667A      8.861371  
    2668A      8.871830  2669A      8.873255  2670A      8.876973  
    2671A      8.877218  2672A      8.879629  2673A      8.884358  
    2674A      8.885948  2675A      8.887196  2676A      8.897470  
    2677A      8.898644  2678A      8.899162  2679A      8.902823  
    2680A      8.907506  2681A      8.908818  2682A      8.909838  
    2683A      8.910428  2684A      8.915041  2685A      8.920073  
    2686A      8.922739  2687A      8.924329  2688A      8.925780  
    2689A      8.929780  2690A      8.936205  2691A      8.946238  
    2692A      8.948503  2693A      8.951882  2694A      8.952378  
    2695A      8.965171  2696A      8.973562  2697A      8.978184  
    2698A      8.979194  2699A      8.986141  2700A      8.989604  
    2701A      9.000522  2702A      9.001381  2703A      9.008889  
    2704A      9.010978  2705A      9.011009  2706A      9.015871  
    2707A      9.018680  2708A      9.027312  2709A      9.031961  
    2710A      9.038516  2711A      9.039332  2712A      9.041662  
    2713A      9.052643  2714A      9.055298  2715A      9.059450  
    2716A      9.065732  2717A      9.072719  2718A      9.073748  
    2719A      9.079226  2720A      9.082195  2721A      9.088711  
    2722A      9.089663  2723A      9.093408  2724A      9.095714  
    2725A      9.099305  2726A      9.110288  2727A      9.112519  
    2728A      9.117074  2729A      9.124155  2730A      9.126963  
    2731A      9.131428  2732A      9.137152  2733A      9.139801  
    2734A      9.142637  2735A      9.155068  2736A      9.159597  
    2737A      9.161710  2738A      9.161830  2739A      9.168196  
    2740A      9.173497  2741A      9.173882  2742A      9.178463  
    2743A      9.179849  2744A      9.181734  2745A      9.182592  
    2746A      9.188126  2747A      9.190264  2748A      9.191009  
    2749A      9.200944  2750A      9.202742  2751A      9.206121  
    2752A      9.209046  2753A      9.215856  2754A      9.217445  
    2755A      9.219015  2756A      9.220661  2757A      9.222245  
    2758A      9.228433  2759A      9.239738  2760A      9.242097  
    2761A      9.245503  2762A      9.247420  2763A      9.256317  
    2764A      9.258626  2765A      9.261230  2766A      9.264050  
    2767A      9.270072  2768A      9.274741  2769A      9.282393  
    2770A      9.283315  2771A      9.285391  2772A      9.286542  
    2773A      9.292117  2774A      9.295434  2775A      9.300704  
    2776A      9.303572  2777A      9.304919  2778A      9.307424  
    2779A      9.315066  2780A      9.321820  2781A      9.328205  
    2782A      9.333212  2783A      9.334135  2784A      9.336024  
    2785A      9.341408  2786A      9.342821  2787A      9.349397  
    2788A      9.352956  2789A      9.355556  2790A      9.358247  
    2791A      9.361351  2792A      9.362549  2793A      9.365653  
    2794A      9.368932  2795A      9.369036  2796A      9.370212  
    2797A      9.373283  2798A      9.375780  2799A      9.378506  
    2800A      9.379103  2801A      9.379639  2802A      9.380823  
    2803A      9.384273  2804A      9.386608  2805A      9.389215  
    2806A      9.391908  2807A      9.391939  2808A      9.393517  
    2809A      9.397594  2810A      9.401053  2811A      9.404582  
    2812A      9.405011  2813A      9.407894  2814A      9.409433  
    2815A      9.413188  2816A      9.415634  2817A      9.418127  
    2818A      9.418895  2819A      9.422239  2820A      9.423560  
    2821A      9.424732  2822A      9.429109  2823A      9.432069  
    2824A      9.434092  2825A      9.434505  2826A      9.436465  
    2827A      9.439049  2828A      9.446460  2829A      9.448758  
    2830A      9.449270  2831A      9.451251  2832A      9.464371  
    2833A      9.469550  2834A      9.470828  2835A      9.471215  
    2836A      9.474088  2837A      9.474840  2838A      9.482714  
    2839A      9.488599  2840A      9.491785  2841A      9.493509  
    2842A      9.498857  2843A      9.503487  2844A      9.513333  
    2845A      9.513633  2846A      9.524664  2847A      9.526068  
    2848A      9.528866  2849A      9.529058  2850A      9.532146  
    2851A      9.532874  2852A      9.544038  2853A      9.556278  
    2854A      9.562492  2855A      9.563011  2856A      9.578132  
    2857A      9.581615  2858A      9.583188  2859A      9.591841  
    2860A      9.594707  2861A      9.594943  2862A      9.595875  
    2863A      9.606247  2864A      9.610231  2865A      9.612830  
    2866A      9.613099  2867A      9.618700  2868A      9.621091  
    2869A      9.628320  2870A      9.634223  2871A      9.635246  
    2872A      9.636515  2873A      9.639792  2874A      9.642241  
    2875A      9.657386  2876A      9.657693  2877A      9.659639  
    2878A      9.670102  2879A      9.672680  2880A      9.672946  
    2881A      9.673301  2882A      9.678000  2883A      9.684455  
    2884A      9.693446  2885A      9.694347  2886A      9.698532  
    2887A      9.703938  2888A      9.719134  2889A      9.735894  
    2890A      9.748106  2891A      9.751039  2892A      9.766904  
    2893A      9.769529  2894A      9.777385  2895A      9.782231  
    2896A      9.784177  2897A      9.792212  2898A      9.792329  
    2899A      9.800801  2900A      9.805034  2901A      9.812097  
    2902A      9.813693  2903A      9.821439  2904A      9.822001  
    2905A      9.837352  2906A      9.843621  2907A      9.851143  
    2908A      9.860886  2909A      9.861503  2910A      9.867713  
    2911A      9.873617  2912A      9.876368  2913A      9.915433  
    2914A      9.917297  2915A      9.924212  2916A      9.925808  
    2917A      9.931795  2918A      9.973690  2919A      9.987034  
    2920A     10.020217  2921A     10.026829  2922A     10.030636  
    2923A     10.055031  2924A     10.060646  2925A     10.062987  
    2926A     10.065788  2927A     10.077617  2928A     10.091006  
    2929A     10.091654  2930A     10.105348  2931A     10.106303  
    2932A     10.107843  2933A     10.116154  2934A     10.117175  
    2935A     10.126087  2936A     10.132327  2937A     10.141815  
    2938A     10.147715  2939A     10.157971  2940A     10.158566  
    2941A     10.160103  2942A     10.173151  2943A     10.188789  
    2944A     10.189897  2945A     10.194647  2946A     10.195853  
    2947A     10.201252  2948A     10.204052  2949A     10.210707  
    2950A     10.212284  2951A     10.233518  2952A     10.234498  
    2953A     10.236546  2954A     10.242349  2955A     10.245775  
    2956A     10.249205  2957A     10.250788  2958A     10.250830  
    2959A     10.259464  2960A     10.277132  2961A     10.283193  
    2962A     10.288151  2963A     10.288472  2964A     10.294309  
    2965A     10.295587  2966A     10.300073  2967A     10.306664  
    2968A     10.312875  2969A     10.318422  2970A     10.324334  
    2971A     10.335967  2972A     10.345758  2973A     10.350849  
    2974A     10.352592  2975A     10.357995  2976A     10.378410  
    2977A     10.384592  2978A     10.386810  2979A     10.390573  
    2980A     10.396442  2981A     10.406061  2982A     10.410709  
    2983A     10.420026  2984A     10.423113  2985A     10.429250  
    2986A     10.431517  2987A     10.437765  2988A     10.447575  
    2989A     10.447916  2990A     10.451327  2991A     10.458959  
    2992A     10.459223  2993A     10.470756  2994A     10.475850  
    2995A     10.477344  2996A     10.491625  2997A     10.493440  
    2998A     10.500384  2999A     10.502455  3000A     10.517061  
    3001A     10.517329  3002A     10.521290  3003A     10.525395  
    3004A     10.530441  3005A     10.536892  3006A     10.540427  
    3007A     10.544534  3008A     10.546095  3009A     10.548324  
    3010A     10.548570  3011A     10.564742  3012A     10.571450  
    3013A     10.576376  3014A     10.580832  3015A     10.588942  
    3016A     10.594795  3017A     10.599780  3018A     10.605748  
    3019A     10.609007  3020A     10.609706  3021A     10.627371  
    3022A     10.630576  3023A     10.633201  3024A     10.634619  
    3025A     10.637621  3026A     10.639252  3027A     10.649077  
    3028A     10.652018  3029A     10.653444  3030A     10.656185  
    3031A     10.660971  3032A     10.662120  3033A     10.671044  
    3034A     10.683657  3035A     10.685953  3036A     10.686441  
    3037A     10.691737  3038A     10.698457  3039A     10.705946  
    3040A     10.707334  3041A     10.718342  3042A     10.735525  
    3043A     10.737652  3044A     10.745481  3045A     10.747634  
    3046A     10.752629  3047A     10.765505  3048A     10.774441  
    3049A     10.787388  3050A     10.793494  3051A     10.794124  
    3052A     10.795811  3053A     10.803354  3054A     10.808144  
    3055A     10.812765  3056A     10.826449  3057A     10.838603  
    3058A     10.849932  3059A     10.850895  3060A     10.857940  
    3061A     10.859646  3062A     10.861727  3063A     10.873200  
    3064A     10.879645  3065A     10.881294  3066A     10.893681  
    3067A     10.894317  3068A     10.902755  3069A     10.905024  
    3070A     10.915229  3071A     10.928839  3072A     10.934682  
    3073A     10.950013  3074A     10.950940  3075A     10.954914  
    3076A     10.955667  3077A     10.957975  3078A     10.970250  
    3079A     10.986413  3080A     10.990102  3081A     11.015887  
    3082A     11.019022  3083A     11.026938  3084A     11.030724  
    3085A     11.033113  3086A     11.035361  3087A     11.056610  
    3088A     11.058040  3089A     11.085786  3090A     11.097118  
    3091A     11.107080  3092A     11.109455  3093A     11.116657  
    3094A     11.139082  3095A     11.151467  3096A     11.162165  
    3097A     11.171866  3098A     11.190585  3099A     11.205192  
    3100A     11.213308  3101A     11.221975  3102A     11.223270  
    3103A     11.236409  3104A     11.239164  3105A     11.268365  
    3106A     11.284501  3107A     11.291891  3108A     11.302214  
    3109A     11.312097  3110A     11.313487  3111A     11.326624  
    3112A     11.346404  3113A     11.382429  3114A     11.386372  
    3115A     11.391595  3116A     11.434815  3117A     11.440888  
    3118A     11.445053  3119A     11.458786  3120A     11.479400  
    3121A     11.483086  3122A     11.507766  3123A     11.534126  
    3124A     11.536411  3125A     11.571212  3126A     11.582884  
    3127A     11.593376  3128A     11.593626  3129A     11.598873  
    3130A     11.604985  3131A     11.623935  3132A     11.626335  
    3133A     11.627896  3134A     11.629278  3135A     11.639298  
    3136A     11.640402  3137A     11.651117  3138A     11.653486  
    3139A     11.654752  3140A     11.654814  3141A     11.656101  
    3142A     11.660945  3143A     11.661199  3144A     11.667565  
    3145A     11.670130  3146A     11.677958  3147A     11.690212  
    3148A     11.691642  3149A     11.698312  3150A     11.700668  
    3151A     11.702148  3152A     11.705895  3153A     11.717155  
    3154A     11.717977  3155A     11.729931  3156A     11.734655  
    3157A     11.765222  3158A     11.788358  3159A     11.828064  
    3160A     11.865410  3161A     11.871874  3162A     11.885334  
    3163A     11.887208  3164A     11.890339  3165A     11.951066  
    3166A     11.953424  3167A     11.961063  3168A     11.975596  
    3169A     11.996228  3170A     11.998022  3171A     11.998788  
    3172A     12.005796  3173A     12.006857  3174A     12.008649  
    3175A     12.012858  3176A     12.015648  3177A     12.029440  
    3178A     12.030560  3179A     12.039374  3180A     12.044022  
    3181A     12.044760  3182A     12.055078  3183A     12.058159  
    3184A     12.061817  3185A     12.062356  3186A     12.066579  
    3187A     12.069987  3188A     12.076795  3189A     12.078594  
    3190A     12.088496  3191A     12.099510  3192A     12.107369  
    3193A     12.108859  3194A     12.114798  3195A     12.115791  
    3196A     12.137598  3197A     12.138398  3198A     12.138823  
    3199A     12.144144  3200A     12.144827  3201A     12.162489  
    3202A     12.176023  3203A     12.182599  3204A     12.184006  
    3205A     12.195693  3206A     12.212070  3207A     12.218103  
    3208A     12.223422  3209A     12.224301  3210A     12.260560  
    3211A     12.283051  3212A     12.285635  3213A     12.300484  
    3214A     12.321642  3215A     12.324339  3216A     12.338310  
    3217A     12.356008  3218A     12.363606  3219A     12.374081  
    3220A     12.380237  3221A     12.381977  3222A     12.390908  
    3223A     12.396247  3224A     12.404162  3225A     12.407237  
    3226A     12.413246  3227A     12.414968  3228A     12.416895  
    3229A     12.437039  3230A     12.442994  3231A     12.446172  
    3232A     12.448196  3233A     12.449090  3234A     12.455535  
    3235A     12.489677  3236A     12.509307  3237A     12.523833  
    3238A     12.526400  3239A     12.539939  3240A     12.542150  
    3241A     12.553309  3242A     12.563995  3243A     12.564391  
    3244A     12.574572  3245A     12.580474  3246A     12.604957  
    3247A     12.606480  3248A     12.628545  3249A     12.650284  
    3250A     12.664762  3251A     12.677426  3252A     12.698484  
    3253A     12.705188  3254A     12.705847  3255A     12.714296  
    3256A     12.721253  3257A     12.728640  3258A     12.738413  
    3259A     12.741412  3260A     12.748723  3261A     12.750111  
    3262A     12.752331  3263A     12.762019  3264A     12.766787  
    3265A     12.768418  3266A     12.770906  3267A     12.771587  
    3268A     12.772902  3269A     12.774869  3270A     12.800111  
    3271A     12.806337  3272A     12.811074  3273A     12.813292  
    3274A     12.823150  3275A     12.829400  3276A     12.831612  
    3277A     12.838917  3278A     12.845011  3279A     12.854342  
    3280A     12.856465  3281A     12.856570  3282A     12.862835  
    3283A     12.864919  3284A     12.867505  3285A     12.895743  
    3286A     12.898859  3287A     12.905075  3288A     12.909564  
    3289A     12.923300  3290A     12.930466  3291A     12.936787  
    3292A     12.936798  3293A     12.944898  3294A     12.951738  
    3295A     12.999412  3296A     13.006029  3297A     13.031071  
    3298A     13.223465  3299A     13.230289  3300A     13.280808  
    3301A     13.302924  3302A     13.306734  3303A     13.391680  
    3304A     13.398857  3305A     13.414867  3306A     13.431454  
    3307A     13.433020  3308A     13.446214  3309A     13.480692  
    3310A     13.499181  3311A     13.504981  3312A     13.673903  
    3313A     13.707619  3314A     13.766064  3315A     13.777268  
    3316A     13.784785  3317A     13.796015  3318A     13.807552  
    3319A     13.824357  3320A     13.864381  3321A     13.866804  
    3322A     13.908997  3323A     13.921592  3324A     13.963440  
    3325A     14.053283  3326A     14.056763  3327A     14.131194  
    3328A     14.164566  3329A     14.175483  3330A     14.182132  
    3331A     14.193562  3332A     14.205641  3333A     14.211602  
    3334A     14.219672  3335A     14.248407  3336A     14.258316  
    3337A     14.262483  3338A     14.298162  3339A     14.389126  
    3340A     14.391848  3341A     14.412071  3342A     14.421982  
    3343A     14.424236  3344A     14.434174  3345A     14.457326  
    3346A     14.468608  3347A     14.518793  3348A     14.541726  
    3349A     14.546419  3350A     14.548871  3351A     14.562701  
    3352A     14.604356  3353A     14.639656  3354A     14.685123  
    3355A     14.694157  3356A     14.706180  3357A     14.707689  
    3358A     14.806484  3359A     14.936083  3360A     14.942332  
    3361A     15.029410  3362A     15.064788  3363A     15.074667  
    3364A     16.735589  3365A     16.819993  3366A     16.965936  
    3367A     24.989841  3368A     24.991148  3369A     25.181399  
    3370A     25.215175  3371A     25.245417  3372A     25.283525  
    3373A     25.335082  3374A     25.361509  3375A     25.405718  
    3376A     26.037049  3377A     26.133621  3378A     26.133831  
    3379A     26.213801  3380A     26.397884  3381A     26.486494  
    3382A     26.542784  3383A     26.666178  3384A     26.731755  
    3385A     26.778416  3386A     26.910891  3387A     27.138820  
    3388A     34.316459  3389A     34.550346  3390A     34.594220  
    3391A     34.683298  3392A     34.934801  3393A     34.962884  
    3394A     42.839297  3395A     42.866674  3396A     43.058805  
    3397A     43.078236  3398A     43.122872  3399A     43.161708  
    3400A     43.162786  3401A     43.276890  3402A     43.317812  
    3403A     44.461670  3404A     44.570589  3405A     44.838659  

    Final Occupation by Irrep:
              A 
    DOCC [   153 ]

  Energy converged.

  @DF-RHF Final Energy: -2045.39599307890035

   => Energetics <=

    Nuclear Repulsion Energy =           3942.7865771560391295
    One-Electron Energy =              -10651.2738964635555021
    Two-Electron Energy =                4663.0913262286157988
    Total Energy =                      -2045.3959930789005739



Properties will be evaluated at   0.000000,   0.000000,   0.000000 Bohr

Properties computed using the SCF density matrix

  Nuclear Dipole Moment: (a.u.)
     X:   -20.8036      Y:   -23.1315      Z:   -12.8132

  Electronic Dipole Moment: (a.u.)
     X:    21.3683      Y:    22.0268      Z:    14.8881

  Dipole Moment: (a.u.)
     X:     0.5647      Y:    -1.1047      Z:     2.0749     Total:     2.4176

  Dipole Moment: (Debye)
     X:     1.4354      Y:    -2.8078      Z:     5.2740     Total:     6.1448


*** tstop() called on hex15 at Tue Mar  6 08:02:36 2018
Module time:
	user time   =   15038.47 seconds =     250.64 minutes
	system time =     707.79 seconds =      11.80 minutes
	total time  =      11354 seconds =     189.23 minutes
Total time:
	user time   =   15038.47 seconds =     250.64 minutes
	system time =     707.79 seconds =      11.80 minutes
	total time  =      11354 seconds =     189.23 minutes

*** Psi4 exiting successfully. Buy a developer a beer!
