
    -----------------------------------------------------------------------
          Psi4: An Open-Source Ab Initio Electronic Structure Package
                               Psi4 1.2a1.dev875 

                         Git: Rev {symm_JK} 0ea9481 dirty


    R. M. Parrish, L. A. Burns, D. G. A. Smith, A. C. Simmonett,
    A. E. DePrince III, E. G. Hohenstein, U. Bozkaya, A. Yu. Sokolov,
    R. Di Remigio, R. M. Richard, J. F. Gonthier, A. M. James,
    H. R. McAlexander, A. Kumar, M. Saitow, X. Wang, B. P. Pritchard,
    P. Verma, H. F. Schaefer III, K. Patkowski, R. A. King, E. F. Valeev,
    F. A. Evangelista, J. M. Turney, T. D. Crawford, and C. D. Sherrill,
    J. Chem. Theory Comput. 13(7) pp 3185--3197 (2017).
    (doi: 10.1021/acs.jctc.7b00174)

    -----------------------------------------------------------------------


    Psi4 started on: Monday, 05 March 2018 11:25PM

    Process ID:   4717
    PSIDATADIR: /theoryfs2/ds/schieber/Gits/mspsi4/objdir3/stage/usr/local/psi4/share/psi4
    Memory:     500.0 MiB
    Threads:    6
    
  ==> Input File <==

--------------------------------------------------------------------------
memory 60 Gb

molecule protein_39 {
0 1
 N   18.626  30.444   6.627
 C   17.853  29.516   5.837
 C   16.945  30.292   4.886
 O   15.843  30.678   5.237
 C   17.047  28.642   6.811
 C   16.316  27.513   6.146
 O   16.236  27.458   4.905
 O   15.762  26.696   6.882
 N   17.407  27.054  -1.437
 C   17.227  26.751  -0.026
 C   18.555  26.446   0.653
 O   19.003  25.309   0.692
 C   16.258  25.572   0.084
 C   15.759  25.336   1.493
 O   16.399  25.780   2.453
 O   14.731  24.675   1.645
 N   19.106  26.199   3.688
 C   18.957  25.372   4.876
 C   18.845  23.903   4.520
 O   18.660  23.054   5.417
 H   18.180  30.990   7.295
 H   18.510  28.835   5.249
 H   16.336  29.276   7.377
 H   17.778  28.186   7.516
 H   15.845  26.702   7.843
 H   17.860  26.421  -2.023
 H   16.724  27.595   0.500
 H   16.724  24.663  -0.337
 H   15.363  25.845  -0.519
 H   16.737  25.171   3.109
 H   18.314  26.771   3.377
 H   18.015  25.631   5.391
 H   19.792  25.567   5.577
 H   19.646  30.419   6.619
 H   17.295  30.415   3.850
 H   16.947  27.858  -1.864
 H   19.060  27.284   1.155
 H   20.034  26.347   3.290
 H   18.824  23.654   3.449
}

set {
basis cc-pvqz
scf_type df
guess sad
DF_SCF_TYPE SYMM_JK
}

energy('HF')
--------------------------------------------------------------------------

  Memory set to  55.879 GiB by Python driver.

*** tstart() called on hex15
*** at Mon Mar  5 23:25:48 2018

   => Loading Basis Set <=

    Name: CC-PVQZ
    Role: ORBITAL
    Keyword: BASIS
    atoms 1, 9, 17                      entry N          line   289 file /theoryfs2/ds/schieber/Gits/mspsi4/objdir3/stage/usr/local/psi4/share/psi4/basis/cc-pvqz.gbs 
    atoms 2-3, 5-6, 10-11, 13-14, 18-19 entry C          line   239 file /theoryfs2/ds/schieber/Gits/mspsi4/objdir3/stage/usr/local/psi4/share/psi4/basis/cc-pvqz.gbs 
    atoms 4, 7-8, 12, 15-16, 20         entry O          line   339 file /theoryfs2/ds/schieber/Gits/mspsi4/objdir3/stage/usr/local/psi4/share/psi4/basis/cc-pvqz.gbs 
    atoms 21-39                         entry H          line    22 file /theoryfs2/ds/schieber/Gits/mspsi4/objdir3/stage/usr/local/psi4/share/psi4/basis/cc-pvqz.gbs 


         ---------------------------------------------------------
                                   SCF
            by Justin Turney, Rob Parrish, Andy Simmonett
                             and Daniel Smith
                              RHF Reference
                        6 Threads,  57220 MiB Core
         ---------------------------------------------------------

  ==> Geometry <==

    Molecular point group: c1
    Full point group: C1

    Geometry (in Angstrom), charge = 0, multiplicity = 1:

       Center              X                  Y                   Z               Mass       
    ------------   -----------------  -----------------  -----------------  -----------------
           N          1.351848201903     3.618071616974     3.042782948432    14.003074004780
           C          0.578848201903     2.690071616974     2.252782948432    12.000000000000
           C         -0.329151798097     3.466071616974     1.301782948432    12.000000000000
           O         -1.431151798097     3.852071616974     1.652782948432    15.994914619560
           C         -0.227151798097     1.816071616974     3.226782948432    12.000000000000
           C         -0.958151798097     0.687071616974     2.561782948432    12.000000000000
           O         -1.038151798097     0.632071616974     1.320782948432    15.994914619560
           O         -1.512151798097    -0.129928383026     3.297782948432    15.994914619560
           N          0.132848201903     0.228071616974    -5.021217051568    14.003074004780
           C         -0.047151798097    -0.074928383026    -3.610217051568    12.000000000000
           C          1.280848201903    -0.379928383026    -2.931217051568    12.000000000000
           O          1.728848201903    -1.516928383026    -2.892217051568    15.994914619560
           C         -1.016151798097    -1.253928383026    -3.500217051568    12.000000000000
           C         -1.515151798097    -1.489928383026    -2.091217051568    12.000000000000
           O         -0.875151798097    -1.045928383026    -1.131217051568    15.994914619560
           O         -2.543151798097    -2.150928383026    -1.939217051568    15.994914619560
           N          1.831848201903    -0.626928383026     0.103782948432    14.003074004780
           C          1.682848201903    -1.453928383026     1.291782948432    12.000000000000
           C          1.570848201903    -2.922928383026     0.935782948432    12.000000000000
           O          1.385848201903    -3.771928383026     1.832782948432    15.994914619560
           H          0.905848201903     4.164071616974     3.710782948432     1.007825032070
           H          1.235848201903     2.009071616974     1.664782948432     1.007825032070
           H         -0.938151798097     2.450071616974     3.792782948432     1.007825032070
           H          0.503848201903     1.360071616974     3.931782948432     1.007825032070
           H         -1.429151798097    -0.123928383026     4.258782948432     1.007825032070
           H          0.585848201903    -0.404928383026    -5.607217051568     1.007825032070
           H         -0.550151798097     0.769071616974    -3.084217051568     1.007825032070
           H         -0.550151798097    -2.162928383026    -3.921217051568     1.007825032070
           H         -1.911151798097    -0.980928383026    -4.103217051568     1.007825032070
           H         -0.537151798097    -1.654928383026    -0.475217051568     1.007825032070
           H          1.039848201903    -0.054928383026    -0.207217051568     1.007825032070
           H          0.740848201903    -1.194928383026     1.806782948432     1.007825032070
           H          2.517848201903    -1.258928383026     1.992782948432     1.007825032070
           H          2.371848201903     3.593071616974     3.034782948432     1.007825032070
           H          0.020848201903     3.589071616974     0.265782948432     1.007825032070
           H         -0.327151798097     1.032071616974    -5.448217051568     1.007825032070
           H          1.785848201903     0.458071616974    -2.429217051568     1.007825032070
           H          2.759848201903    -0.478928383026    -0.294217051568     1.007825032070
           H          1.549848201903    -3.171928383026    -0.135217051568     1.007825032070

  Running in c1 symmetry.

  Rotational constants: A =      0.01135  B =      0.00596  C =      0.00509 [cm^-1]
  Rotational constants: A =    340.34658  B =    178.57705  C =    152.51078 [MHz]
  Nuclear repulsion = 1638.269612368452044

  Charge       = 0
  Multiplicity = 1
  Electrons    = 156
  Nalpha       = 78
  Nbeta        = 78

  ==> Algorithm <==

  SCF Algorithm Type is DF.
  DIIS enabled.
  MOM disabled.
  Fractional occupation disabled.
  Guess Type is SAD.
  Energy threshold   = 1.00e-06
  Density threshold  = 1.00e-06
  Integral threshold = 0.00e+00

  ==> Primary Basis <==

  Basis Set: CC-PVQZ
    Blend: CC-PVQZ
    Number of shells: 490
    Number of basis function: 1670
    Number of Cartesian functions: 2065
    Spherical Harmonics?: true
    Max angular momentum: 4

   => Loading Basis Set <=

    Name: (CC-PVQZ AUX)
    Role: JKFIT
    Keyword: DF_BASIS_SCF
    atoms 1, 9, 17                      entry N          line   195 file /theoryfs2/ds/schieber/Gits/mspsi4/objdir3/stage/usr/local/psi4/share/psi4/basis/cc-pvqz-jkfit.gbs 
    atoms 2-3, 5-6, 10-11, 13-14, 18-19 entry C          line   137 file /theoryfs2/ds/schieber/Gits/mspsi4/objdir3/stage/usr/local/psi4/share/psi4/basis/cc-pvqz-jkfit.gbs 
    atoms 4, 7-8, 12, 15-16, 20         entry O          line   253 file /theoryfs2/ds/schieber/Gits/mspsi4/objdir3/stage/usr/local/psi4/share/psi4/basis/cc-pvqz-jkfit.gbs 
    atoms 21-39                         entry H          line    51 file /theoryfs2/ds/schieber/Gits/mspsi4/objdir3/stage/usr/local/psi4/share/psi4/basis/cc-pvqz-jkfit.gbs 

  ==> Pre-Iterations <==

   -------------------------------------------------------
    Irrep   Nso     Nmo     Nalpha   Nbeta   Ndocc  Nsocc
   -------------------------------------------------------
     A       1670    1670       0       0       0       0
   -------------------------------------------------------
    Total    1670    1670      78      78      78       0
   -------------------------------------------------------

  ==> Integral Setup <==


    ==> DF_Helper memory announcement <==
        Turning off in-core AOs.  DF_Helper needs at least (46.3112GB), but it only got (45GB)

    ==> DF_Helper <==
      nao           = 1670
      naux          = 3089
      Scwarz cutoff = 1.000000E-12
      mem (doubles) = 5625000000
      nthreads      = 6
      Algorithm     = STORE
      AO_core?      = 0
      MO_core?      = 0
      hold metric   = 0
      metric power  = -5.000000E-01
  Fitting condition = 1.000000E-12
  Mask sparsity (%) = (47.505540)


  Minimum eigenvalue in the overlap matrix is 4.3649056843E-05.
  Using Symmetric Orthogonalization.

  SCF Guess: Superposition of Atomic Densities via on-the-fly atomic UHF.

  ==> Iterations <==

                           Total Energy        Delta E     RMS |[F,P]|

   @DF-RHF iter   0: -1084.62546847496264   -1.08463e+03   1.22081e-02 
   @DF-RHF iter   1: -1076.77616707723951    7.84930e+00   1.65931e-03 
   @DF-RHF iter   2: -1077.24439876648125   -4.68232e-01   1.15848e-03 DIIS
   @DF-RHF iter   3: -1077.47276274651540   -2.28364e-01   2.45885e-04 DIIS
   @DF-RHF iter   4: -1077.49419977457251   -2.14370e-02   8.31708e-05 DIIS
   @DF-RHF iter   5: -1077.49700586617291   -2.80609e-03   3.22788e-05 DIIS
   @DF-RHF iter   6: -1077.49757017624347   -5.64310e-04   1.49634e-05 DIIS
   @DF-RHF iter   7: -1077.49772990208248   -1.59726e-04   6.81965e-06 DIIS
   @DF-RHF iter   8: -1077.49776627693814   -3.63749e-05   3.07555e-06 DIIS
   @DF-RHF iter   9: -1077.49777631270899   -1.00358e-05   1.22359e-06 DIIS
   @DF-RHF iter  10: -1077.49777821329167   -1.90058e-06   6.06609e-07 DIIS
   @DF-RHF iter  11: -1077.49777869972468   -4.86433e-07   2.61630e-07 DIIS

  ==> Post-Iterations <==

    Orbital Energies (a.u.)
    -----------------------

    Doubly Occupied:                                                      

       1A    -20.644841     2A    -20.601512     3A    -20.567019  
       4A    -20.560715     5A    -20.558422     6A    -20.539723  
       7A    -20.513615     8A    -15.558985     9A    -15.551106  
      10A    -15.549747    11A    -11.397419    12A    -11.365137  
      13A    -11.344309    14A    -11.338818    15A    -11.336274  
      16A    -11.297897    17A    -11.290225    18A    -11.283281  
      19A    -11.265859    20A    -11.237835    21A     -1.529322  
      22A     -1.498990    23A     -1.397363    24A     -1.393272  
      25A     -1.369257    26A     -1.358778    27A     -1.332182  
      28A     -1.215798    29A     -1.202689    30A     -1.187381  
      31A     -1.057566    32A     -1.043741    33A     -0.966841  
      34A     -0.951884    35A     -0.937625    36A     -0.908464  
      37A     -0.875412    38A     -0.811216    39A     -0.804851  
      40A     -0.796086    41A     -0.749830    42A     -0.732597  
      43A     -0.720723    44A     -0.707754    45A     -0.696234  
      46A     -0.694274    47A     -0.689853    48A     -0.687239  
      49A     -0.667572    50A     -0.662709    51A     -0.660913  
      52A     -0.654076    53A     -0.645419    54A     -0.633147  
      55A     -0.631799    56A     -0.630135    57A     -0.623039  
      58A     -0.592307    59A     -0.580002    60A     -0.575662  
      61A     -0.564679    62A     -0.559246    63A     -0.533835  
      64A     -0.530860    65A     -0.521532    66A     -0.517417  
      67A     -0.506721    68A     -0.490457    69A     -0.476239  
      70A     -0.464248    71A     -0.457098    72A     -0.448893  
      73A     -0.446639    74A     -0.445279    75A     -0.435429  
      76A     -0.388699    77A     -0.384278    78A     -0.378461  

    Virtual:                                                              

      79A      0.075705    80A      0.083526    81A      0.092203  
      82A      0.097028    83A      0.101349    84A      0.115315  
      85A      0.130905    86A      0.131235    87A      0.133307  
      88A      0.139614    89A      0.143573    90A      0.151285  
      91A      0.153401    92A      0.162501    93A      0.169326  
      94A      0.175562    95A      0.182422    96A      0.187517  
      97A      0.196099    98A      0.198517    99A      0.203542  
     100A      0.217962   101A      0.230304   102A      0.242262  
     103A      0.251185   104A      0.258470   105A      0.264247  
     106A      0.276806   107A      0.280053   108A      0.284386  
     109A      0.294772   110A      0.296067   111A      0.308357  
     112A      0.316238   113A      0.318129   114A      0.322207  
     115A      0.330235   116A      0.336696   117A      0.343975  
     118A      0.345831   119A      0.351277   120A      0.355352  
     121A      0.359839   122A      0.368326   123A      0.375007  
     124A      0.378319   125A      0.388912   126A      0.391001  
     127A      0.397214   128A      0.402713   129A      0.412561  
     130A      0.416396   131A      0.423731   132A      0.426414  
     133A      0.427530   134A      0.432218   135A      0.434132  
     136A      0.440298   137A      0.444518   138A      0.447798  
     139A      0.457414   140A      0.462296   141A      0.468651  
     142A      0.470943   143A      0.474366   144A      0.476834  
     145A      0.482648   146A      0.484897   147A      0.490334  
     148A      0.498445   149A      0.501662   150A      0.504133  
     151A      0.505502   152A      0.509769   153A      0.515850  
     154A      0.519013   155A      0.521094   156A      0.524922  
     157A      0.530948   158A      0.537652   159A      0.540267  
     160A      0.546492   161A      0.552903   162A      0.557644  
     163A      0.559652   164A      0.562525   165A      0.564418  
     166A      0.567799   167A      0.575383   168A      0.577007  
     169A      0.582672   170A      0.587600   171A      0.594263  
     172A      0.596293   173A      0.605218   174A      0.606815  
     175A      0.614274   176A      0.621626   177A      0.623898  
     178A      0.628195   179A      0.633365   180A      0.641778  
     181A      0.650637   182A      0.652385   183A      0.659398  
     184A      0.660724   185A      0.666695   186A      0.674900  
     187A      0.681202   188A      0.687508   189A      0.691446  
     190A      0.695706   191A      0.705564   192A      0.709680  
     193A      0.718824   194A      0.722638   195A      0.725260  
     196A      0.732623   197A      0.740158   198A      0.747348  
     199A      0.751702   200A      0.752764   201A      0.754842  
     202A      0.759904   203A      0.764178   204A      0.770932  
     205A      0.771747   206A      0.778298   207A      0.788467  
     208A      0.793400   209A      0.801968   210A      0.810653  
     211A      0.820054   212A      0.824243   213A      0.825898  
     214A      0.830400   215A      0.838032   216A      0.843481  
     217A      0.851763   218A      0.857509   219A      0.866331  
     220A      0.873224   221A      0.877285   222A      0.885760  
     223A      0.892261   224A      0.895324   225A      0.899056  
     226A      0.901270   227A      0.907350   228A      0.911283  
     229A      0.916881   230A      0.922610   231A      0.929770  
     232A      0.934004   233A      0.938336   234A      0.939406  
     235A      0.945968   236A      0.952498   237A      0.957651  
     238A      0.964497   239A      0.968097   240A      0.974126  
     241A      0.976946   242A      0.987787   243A      0.992004  
     244A      0.994923   245A      0.998292   246A      1.005926  
     247A      1.014605   248A      1.015634   249A      1.020038  
     250A      1.025639   251A      1.029543   252A      1.031307  
     253A      1.035068   254A      1.037027   255A      1.043634  
     256A      1.046517   257A      1.047681   258A      1.055847  
     259A      1.059467   260A      1.063949   261A      1.072194  
     262A      1.080433   263A      1.086998   264A      1.089130  
     265A      1.093316   266A      1.102106   267A      1.104582  
     268A      1.110701   269A      1.112433   270A      1.117659  
     271A      1.127829   272A      1.131305   273A      1.136353  
     274A      1.138613   275A      1.139761   276A      1.146494  
     277A      1.150565   278A      1.157631   279A      1.162296  
     280A      1.170022   281A      1.173720   282A      1.178811  
     283A      1.184823   284A      1.189945   285A      1.194010  
     286A      1.195191   287A      1.199636   288A      1.207260  
     289A      1.208434   290A      1.212367   291A      1.228950  
     292A      1.233156   293A      1.237687   294A      1.242478  
     295A      1.245711   296A      1.247280   297A      1.253434  
     298A      1.260490   299A      1.265365   300A      1.268043  
     301A      1.272236   302A      1.278211   303A      1.290165  
     304A      1.298085   305A      1.302497   306A      1.309671  
     307A      1.313831   308A      1.318331   309A      1.319960  
     310A      1.326624   311A      1.333864   312A      1.343278  
     313A      1.355245   314A      1.360100   315A      1.367946  
     316A      1.369371   317A      1.377878   318A      1.381989  
     319A      1.384580   320A      1.389193   321A      1.403232  
     322A      1.414956   323A      1.423486   324A      1.429787  
     325A      1.436760   326A      1.448900   327A      1.452001  
     328A      1.459279   329A      1.474827   330A      1.486631  
     331A      1.493480   332A      1.494066   333A      1.503279  
     334A      1.509236   335A      1.515417   336A      1.520651  
     337A      1.523022   338A      1.535801   339A      1.542001  
     340A      1.558440   341A      1.564892   342A      1.572687  
     343A      1.577619   344A      1.596552   345A      1.598745  
     346A      1.605988   347A      1.614900   348A      1.618475  
     349A      1.619555   350A      1.631249   351A      1.645834  
     352A      1.647865   353A      1.652968   354A      1.666641  
     355A      1.668642   356A      1.679466   357A      1.685978  
     358A      1.691595   359A      1.704059   360A      1.707683  
     361A      1.717853   362A      1.724250   363A      1.728184  
     364A      1.730452   365A      1.748423   366A      1.753363  
     367A      1.753674   368A      1.761848   369A      1.768342  
     370A      1.775130   371A      1.779470   372A      1.786313  
     373A      1.791266   374A      1.800368   375A      1.805025  
     376A      1.811631   377A      1.815762   378A      1.827690  
     379A      1.830681   380A      1.832909   381A      1.837725  
     382A      1.845428   383A      1.856174   384A      1.865277  
     385A      1.868299   386A      1.872370   387A      1.883051  
     388A      1.888880   389A      1.899681   390A      1.903297  
     391A      1.906259   392A      1.913752   393A      1.919399  
     394A      1.931876   395A      1.936236   396A      1.939015  
     397A      1.948302   398A      1.952094   399A      1.960099  
     400A      1.967815   401A      1.971075   402A      1.985539  
     403A      1.990948   404A      1.991541   405A      1.996440  
     406A      2.000515   407A      2.010360   408A      2.020041  
     409A      2.030925   410A      2.033097   411A      2.038977  
     412A      2.044926   413A      2.050104   414A      2.052072  
     415A      2.061447   416A      2.064645   417A      2.070777  
     418A      2.072084   419A      2.082453   420A      2.090279  
     421A      2.091787   422A      2.095758   423A      2.099968  
     424A      2.109338   425A      2.116747   426A      2.120223  
     427A      2.124803   428A      2.128737   429A      2.138113  
     430A      2.146417   431A      2.150278   432A      2.159092  
     433A      2.164354   434A      2.168683   435A      2.173559  
     436A      2.174161   437A      2.183933   438A      2.188790  
     439A      2.189236   440A      2.198213   441A      2.201496  
     442A      2.209956   443A      2.214900   444A      2.217792  
     445A      2.223128   446A      2.227110   447A      2.233061  
     448A      2.239147   449A      2.245066   450A      2.251690  
     451A      2.259723   452A      2.264838   453A      2.272025  
     454A      2.279066   455A      2.287315   456A      2.290243  
     457A      2.294837   458A      2.299214   459A      2.302146  
     460A      2.303573   461A      2.305288   462A      2.315105  
     463A      2.325040   464A      2.326876   465A      2.338414  
     466A      2.343199   467A      2.347621   468A      2.353777  
     469A      2.356796   470A      2.362021   471A      2.366465  
     472A      2.373386   473A      2.375769   474A      2.383085  
     475A      2.384516   476A      2.391362   477A      2.401338  
     478A      2.402538   479A      2.404137   480A      2.409220  
     481A      2.420079   482A      2.430563   483A      2.434956  
     484A      2.438905   485A      2.439595   486A      2.449095  
     487A      2.451061   488A      2.458924   489A      2.459672  
     490A      2.468824   491A      2.470731   492A      2.475731  
     493A      2.482042   494A      2.487873   495A      2.493037  
     496A      2.500254   497A      2.503138   498A      2.508154  
     499A      2.513496   500A      2.515522   501A      2.520661  
     502A      2.522196   503A      2.535294   504A      2.538377  
     505A      2.545516   506A      2.549372   507A      2.555805  
     508A      2.561646   509A      2.563711   510A      2.568918  
     511A      2.573086   512A      2.582455   513A      2.587678  
     514A      2.593040   515A      2.597715   516A      2.600037  
     517A      2.603559   518A      2.610142   519A      2.612850  
     520A      2.619635   521A      2.622938   522A      2.624422  
     523A      2.631317   524A      2.638097   525A      2.642949  
     526A      2.643597   527A      2.653039   528A      2.661559  
     529A      2.668255   530A      2.676147   531A      2.678577  
     532A      2.685766   533A      2.695783   534A      2.700102  
     535A      2.708017   536A      2.719350   537A      2.724736  
     538A      2.727501   539A      2.731337   540A      2.735264  
     541A      2.740127   542A      2.741177   543A      2.743037  
     544A      2.756947   545A      2.759908   546A      2.765784  
     547A      2.770219   548A      2.779313   549A      2.781965  
     550A      2.783978   551A      2.788336   552A      2.797848  
     553A      2.800726   554A      2.803027   555A      2.808987  
     556A      2.817226   557A      2.824127   558A      2.831955  
     559A      2.838997   560A      2.848142   561A      2.850823  
     562A      2.860752   563A      2.862757   564A      2.865517  
     565A      2.873224   566A      2.875139   567A      2.884647  
     568A      2.886655   569A      2.894937   570A      2.907636  
     571A      2.908197   572A      2.920054   573A      2.924346  
     574A      2.930270   575A      2.941068   576A      2.943265  
     577A      2.947763   578A      2.953302   579A      2.954066  
     580A      2.962895   581A      2.971201   582A      2.978374  
     583A      2.983175   584A      2.991736   585A      3.000265  
     586A      3.002562   587A      3.012556   588A      3.022015  
     589A      3.029859   590A      3.033070   591A      3.038015  
     592A      3.042747   593A      3.050531   594A      3.053266  
     595A      3.060598   596A      3.065932   597A      3.072641  
     598A      3.077862   599A      3.080137   600A      3.085947  
     601A      3.099026   602A      3.103846   603A      3.105592  
     604A      3.116124   605A      3.118233   606A      3.122300  
     607A      3.128356   608A      3.136511   609A      3.142280  
     610A      3.149826   611A      3.158288   612A      3.159828  
     613A      3.166316   614A      3.181483   615A      3.188939  
     616A      3.196505   617A      3.207558   618A      3.212166  
     619A      3.222106   620A      3.228094   621A      3.228961  
     622A      3.237097   623A      3.243959   624A      3.246243  
     625A      3.259401   626A      3.263435   627A      3.271383  
     628A      3.284770   629A      3.288639   630A      3.293446  
     631A      3.297664   632A      3.308428   633A      3.312187  
     634A      3.322381   635A      3.326873   636A      3.334538  
     637A      3.342299   638A      3.344529   639A      3.356984  
     640A      3.361646   641A      3.363915   642A      3.370857  
     643A      3.378084   644A      3.381153   645A      3.390719  
     646A      3.395239   647A      3.403476   648A      3.404863  
     649A      3.418889   650A      3.425593   651A      3.429908  
     652A      3.434978   653A      3.440105   654A      3.447592  
     655A      3.451492   656A      3.464634   657A      3.472056  
     658A      3.477785   659A      3.486454   660A      3.495416  
     661A      3.499237   662A      3.509762   663A      3.514629  
     664A      3.515589   665A      3.525423   666A      3.532285  
     667A      3.540442   668A      3.547512   669A      3.565008  
     670A      3.566929   671A      3.577197   672A      3.583048  
     673A      3.591172   674A      3.600453   675A      3.602715  
     676A      3.605676   677A      3.612009   678A      3.617033  
     679A      3.623648   680A      3.625329   681A      3.631386  
     682A      3.639723   683A      3.641602   684A      3.650314  
     685A      3.658810   686A      3.662708   687A      3.667945  
     688A      3.673600   689A      3.686111   690A      3.695216  
     691A      3.698414   692A      3.705602   693A      3.714791  
     694A      3.724542   695A      3.734726   696A      3.738386  
     697A      3.750610   698A      3.759944   699A      3.762317  
     700A      3.770054   701A      3.774588   702A      3.786384  
     703A      3.795374   704A      3.799690   705A      3.808886  
     706A      3.811299   707A      3.825536   708A      3.826743  
     709A      3.829688   710A      3.835708   711A      3.845555  
     712A      3.850409   713A      3.852121   714A      3.855759  
     715A      3.859121   716A      3.864112   717A      3.868668  
     718A      3.881967   719A      3.884398   720A      3.898931  
     721A      3.907150   722A      3.917328   723A      3.926244  
     724A      3.933117   725A      3.943370   726A      3.949773  
     727A      3.955056   728A      3.973565   729A      3.977582  
     730A      3.984252   731A      3.990419   732A      3.998598  
     733A      4.002106   734A      4.014400   735A      4.021988  
     736A      4.023535   737A      4.034576   738A      4.043050  
     739A      4.060950   740A      4.063515   741A      4.069284  
     742A      4.074108   743A      4.079413   744A      4.084488  
     745A      4.097804   746A      4.111729   747A      4.120393  
     748A      4.128956   749A      4.136105   750A      4.142333  
     751A      4.149198   752A      4.151605   753A      4.165132  
     754A      4.171315   755A      4.183751   756A      4.190816  
     757A      4.203170   758A      4.215171   759A      4.221479  
     760A      4.229567   761A      4.234148   762A      4.236708  
     763A      4.254745   764A      4.260242   765A      4.263868  
     766A      4.277791   767A      4.291125   768A      4.294656  
     769A      4.302851   770A      4.307871   771A      4.321548  
     772A      4.328686   773A      4.340569   774A      4.344097  
     775A      4.363951   776A      4.368633   777A      4.371925  
     778A      4.384440   779A      4.395056   780A      4.403179  
     781A      4.416323   782A      4.420109   783A      4.420377  
     784A      4.429585   785A      4.432233   786A      4.448082  
     787A      4.459834   788A      4.469162   789A      4.474349  
     790A      4.482550   791A      4.493944   792A      4.507044  
     793A      4.513496   794A      4.516880   795A      4.526307  
     796A      4.541823   797A      4.544207   798A      4.552986  
     799A      4.555033   800A      4.559612   801A      4.579074  
     802A      4.586610   803A      4.594907   804A      4.610083  
     805A      4.613768   806A      4.625077   807A      4.636228  
     808A      4.643090   809A      4.649022   810A      4.658009  
     811A      4.662415   812A      4.669539   813A      4.682142  
     814A      4.696252   815A      4.699170   816A      4.710241  
     817A      4.718620   818A      4.725532   819A      4.733795  
     820A      4.750430   821A      4.754512   822A      4.767301  
     823A      4.781699   824A      4.790612   825A      4.801015  
     826A      4.808770   827A      4.820172   828A      4.827544  
     829A      4.835589   830A      4.845737   831A      4.859656  
     832A      4.870054   833A      4.882214   834A      4.884439  
     835A      4.903505   836A      4.913555   837A      4.918347  
     838A      4.920352   839A      4.952689   840A      4.977710  
     841A      4.987384   842A      5.013027   843A      5.023828  
     844A      5.030604   845A      5.031370   846A      5.068314  
     847A      5.077512   848A      5.090972   849A      5.116215  
     850A      5.128221   851A      5.144157   852A      5.160832  
     853A      5.176150   854A      5.181467   855A      5.238093  
     856A      5.255673   857A      5.284122   858A      5.290293  
     859A      5.302230   860A      5.309059   861A      5.342043  
     862A      5.359535   863A      5.379340   864A      5.382904  
     865A      5.397554   866A      5.407732   867A      5.438015  
     868A      5.458573   869A      5.460378   870A      5.475497  
     871A      5.503097   872A      5.506871   873A      5.552424  
     874A      5.563566   875A      5.571784   876A      5.585831  
     877A      5.589463   878A      5.603568   879A      5.614156  
     880A      5.620301   881A      5.660778   882A      5.682964  
     883A      5.700315   884A      5.730297   885A      5.741642  
     886A      5.745311   887A      5.757025   888A      5.767423  
     889A      5.774609   890A      5.778425   891A      5.780984  
     892A      5.798711   893A      5.812510   894A      5.832432  
     895A      5.840838   896A      5.852890   897A      5.862553  
     898A      5.871796   899A      5.877516   900A      5.888936  
     901A      5.897077   902A      5.899474   903A      5.909608  
     904A      5.914549   905A      5.932120   906A      5.932747  
     907A      5.946661   908A      5.950517   909A      5.956384  
     910A      5.970290   911A      5.975045   912A      5.981151  
     913A      5.985551   914A      5.995255   915A      6.003253  
     916A      6.010675   917A      6.016632   918A      6.020336  
     919A      6.027069   920A      6.040555   921A      6.045345  
     922A      6.055283   923A      6.062096   924A      6.066775  
     925A      6.070897   926A      6.078753   927A      6.083382  
     928A      6.091563   929A      6.096437   930A      6.105622  
     931A      6.119555   932A      6.131216   933A      6.133464  
     934A      6.138904   935A      6.149021   936A      6.153646  
     937A      6.162320   938A      6.166675   939A      6.172129  
     940A      6.182977   941A      6.190352   942A      6.197355  
     943A      6.199775   944A      6.204905   945A      6.210832  
     946A      6.213069   947A      6.219431   948A      6.223315  
     949A      6.232993   950A      6.245506   951A      6.249287  
     952A      6.249967   953A      6.256803   954A      6.264609  
     955A      6.276279   956A      6.286998   957A      6.292022  
     958A      6.297925   959A      6.305994   960A      6.318778  
     961A      6.321710   962A      6.328014   963A      6.332322  
     964A      6.337132   965A      6.342239   966A      6.344913  
     967A      6.352870   968A      6.359782   969A      6.366858  
     970A      6.374380   971A      6.385440   972A      6.387615  
     973A      6.392941   974A      6.396417   975A      6.402150  
     976A      6.407718   977A      6.417078   978A      6.427799  
     979A      6.429163   980A      6.436980   981A      6.441619  
     982A      6.444972   983A      6.456692   984A      6.458765  
     985A      6.461672   986A      6.465146   987A      6.473364  
     988A      6.476412   989A      6.489015   990A      6.494874  
     991A      6.498957   992A      6.502177   993A      6.503276  
     994A      6.510858   995A      6.521687   996A      6.522955  
     997A      6.540953   998A      6.554058   999A      6.557295  
    1000A      6.566185  1001A      6.569788  1002A      6.583275  
    1003A      6.584479  1004A      6.598226  1005A      6.602081  
    1006A      6.614760  1007A      6.625138  1008A      6.626487  
    1009A      6.630759  1010A      6.635137  1011A      6.635935  
    1012A      6.639848  1013A      6.644982  1014A      6.652412  
    1015A      6.661869  1016A      6.664682  1017A      6.670168  
    1018A      6.676769  1019A      6.681222  1020A      6.686482  
    1021A      6.698075  1022A      6.710232  1023A      6.720905  
    1024A      6.729713  1025A      6.731407  1026A      6.734281  
    1027A      6.752069  1028A      6.756234  1029A      6.763409  
    1030A      6.778552  1031A      6.787996  1032A      6.793227  
    1033A      6.799537  1034A      6.808761  1035A      6.817050  
    1036A      6.825576  1037A      6.830888  1038A      6.842930  
    1039A      6.848735  1040A      6.853251  1041A      6.874485  
    1042A      6.880798  1043A      6.893056  1044A      6.904641  
    1045A      6.917182  1046A      6.918608  1047A      6.933896  
    1048A      6.936711  1049A      6.937849  1050A      6.950478  
    1051A      6.966382  1052A      6.972938  1053A      6.974764  
    1054A      6.985750  1055A      6.995956  1056A      7.015112  
    1057A      7.018353  1058A      7.029137  1059A      7.030525  
    1060A      7.045339  1061A      7.052268  1062A      7.056628  
    1063A      7.065163  1064A      7.067909  1065A      7.085393  
    1066A      7.085967  1067A      7.093401  1068A      7.094734  
    1069A      7.119753  1070A      7.125496  1071A      7.132425  
    1072A      7.138899  1073A      7.146347  1074A      7.150998  
    1075A      7.155773  1076A      7.167786  1077A      7.176542  
    1078A      7.189659  1079A      7.196410  1080A      7.204779  
    1081A      7.211104  1082A      7.216907  1083A      7.228668  
    1084A      7.242883  1085A      7.245356  1086A      7.251623  
    1087A      7.257384  1088A      7.268882  1089A      7.282682  
    1090A      7.283292  1091A      7.294149  1092A      7.303110  
    1093A      7.315235  1094A      7.326009  1095A      7.336878  
    1096A      7.362159  1097A      7.372036  1098A      7.374525  
    1099A      7.381292  1100A      7.389034  1101A      7.407090  
    1102A      7.408465  1103A      7.426665  1104A      7.430928  
    1105A      7.443179  1106A      7.444382  1107A      7.449717  
    1108A      7.457140  1109A      7.458412  1110A      7.467266  
    1111A      7.476606  1112A      7.485939  1113A      7.495596  
    1114A      7.503755  1115A      7.504555  1116A      7.525778  
    1117A      7.532453  1118A      7.544763  1119A      7.552904  
    1120A      7.555384  1121A      7.560675  1122A      7.571797  
    1123A      7.580532  1124A      7.591637  1125A      7.598157  
    1126A      7.606775  1127A      7.618060  1128A      7.623791  
    1129A      7.625043  1130A      7.627784  1131A      7.643825  
    1132A      7.656575  1133A      7.661794  1134A      7.672641  
    1135A      7.676853  1136A      7.682812  1137A      7.688448  
    1138A      7.690254  1139A      7.701522  1140A      7.706202  
    1141A      7.721541  1142A      7.725767  1143A      7.734247  
    1144A      7.747562  1145A      7.755373  1146A      7.758812  
    1147A      7.769721  1148A      7.774379  1149A      7.775528  
    1150A      7.796163  1151A      7.799473  1152A      7.809457  
    1153A      7.813994  1154A      7.821275  1155A      7.832492  
    1156A      7.834999  1157A      7.841803  1158A      7.849371  
    1159A      7.852730  1160A      7.861964  1161A      7.864883  
    1162A      7.867546  1163A      7.878069  1164A      7.887553  
    1165A      7.889357  1166A      7.896236  1167A      7.910538  
    1168A      7.913087  1169A      7.918561  1170A      7.924491  
    1171A      7.930223  1172A      7.935275  1173A      7.940668  
    1174A      7.947823  1175A      7.954210  1176A      7.968524  
    1177A      7.975088  1178A      7.984594  1179A      7.990909  
    1180A      8.006031  1181A      8.012802  1182A      8.025551  
    1183A      8.028972  1184A      8.036915  1185A      8.045069  
    1186A      8.047752  1187A      8.062123  1188A      8.066801  
    1189A      8.074245  1190A      8.081902  1191A      8.092057  
    1192A      8.097078  1193A      8.097650  1194A      8.105225  
    1195A      8.118445  1196A      8.119389  1197A      8.128582  
    1198A      8.149198  1199A      8.168992  1200A      8.172569  
    1201A      8.180990  1202A      8.191917  1203A      8.194745  
    1204A      8.199267  1205A      8.204327  1206A      8.215401  
    1207A      8.217859  1208A      8.222836  1209A      8.229306  
    1210A      8.231355  1211A      8.238052  1212A      8.240577  
    1213A      8.247252  1214A      8.256996  1215A      8.260623  
    1216A      8.264611  1217A      8.272492  1218A      8.280543  
    1219A      8.281562  1220A      8.286461  1221A      8.293849  
    1222A      8.300199  1223A      8.316184  1224A      8.326503  
    1225A      8.327986  1226A      8.333929  1227A      8.346621  
    1228A      8.355421  1229A      8.357387  1230A      8.363135  
    1231A      8.366950  1232A      8.379845  1233A      8.386866  
    1234A      8.397521  1235A      8.399331  1236A      8.403922  
    1237A      8.412116  1238A      8.413566  1239A      8.422373  
    1240A      8.429859  1241A      8.435582  1242A      8.442903  
    1243A      8.452953  1244A      8.459628  1245A      8.464739  
    1246A      8.470043  1247A      8.475816  1248A      8.481804  
    1249A      8.490526  1250A      8.495071  1251A      8.502081  
    1252A      8.514877  1253A      8.519314  1254A      8.527352  
    1255A      8.531032  1256A      8.534698  1257A      8.541517  
    1258A      8.547019  1259A      8.557305  1260A      8.563795  
    1261A      8.571729  1262A      8.582617  1263A      8.591302  
    1264A      8.596877  1265A      8.603054  1266A      8.611737  
    1267A      8.615788  1268A      8.625266  1269A      8.642430  
    1270A      8.650181  1271A      8.659254  1272A      8.670962  
    1273A      8.674075  1274A      8.675803  1275A      8.693577  
    1276A      8.701286  1277A      8.703012  1278A      8.711107  
    1279A      8.713315  1280A      8.730338  1281A      8.736122  
    1282A      8.740675  1283A      8.753638  1284A      8.759060  
    1285A      8.764686  1286A      8.773326  1287A      8.797587  
    1288A      8.799939  1289A      8.802744  1290A      8.814514  
    1291A      8.824020  1292A      8.830402  1293A      8.847375  
    1294A      8.857653  1295A      8.868071  1296A      8.873017  
    1297A      8.879387  1298A      8.882559  1299A      8.894064  
    1300A      8.894869  1301A      8.898976  1302A      8.910290  
    1303A      8.916454  1304A      8.920700  1305A      8.929429  
    1306A      8.942313  1307A      8.948649  1308A      8.962360  
    1309A      8.975387  1310A      8.984886  1311A      9.002274  
    1312A      9.012096  1313A      9.022583  1314A      9.034290  
    1315A      9.048503  1316A      9.049740  1317A      9.056079  
    1318A      9.068974  1319A      9.079064  1320A      9.086073  
    1321A      9.092301  1322A      9.094973  1323A      9.113023  
    1324A      9.132385  1325A      9.139612  1326A      9.155679  
    1327A      9.165180  1328A      9.170714  1329A      9.174610  
    1330A      9.178037  1331A      9.184621  1332A      9.187013  
    1333A      9.202026  1334A      9.205555  1335A      9.212328  
    1336A      9.216556  1337A      9.224358  1338A      9.234178  
    1339A      9.241643  1340A      9.254344  1341A      9.259519  
    1342A      9.265690  1343A      9.279815  1344A      9.282100  
    1345A      9.288474  1346A      9.295861  1347A      9.300457  
    1348A      9.301079  1349A      9.312260  1350A      9.328576  
    1351A      9.336021  1352A      9.344196  1353A      9.348539  
    1354A      9.355732  1355A      9.363822  1356A      9.371178  
    1357A      9.375777  1358A      9.377278  1359A      9.380619  
    1360A      9.383763  1361A      9.388100  1362A      9.389710  
    1363A      9.398339  1364A      9.400964  1365A      9.404397  
    1366A      9.405682  1367A      9.408694  1368A      9.417494  
    1369A      9.421458  1370A      9.428731  1371A      9.432725  
    1372A      9.445872  1373A      9.447914  1374A      9.461824  
    1375A      9.467544  1376A      9.471138  1377A      9.479844  
    1378A      9.487175  1379A      9.498157  1380A      9.508759  
    1381A      9.522161  1382A      9.524953  1383A      9.541370  
    1384A      9.559271  1385A      9.576569  1386A      9.591358  
    1387A      9.592519  1388A      9.602661  1389A      9.609241  
    1390A      9.618441  1391A      9.624772  1392A      9.634279  
    1393A      9.636298  1394A      9.652263  1395A      9.655635  
    1396A      9.669771  1397A      9.674378  1398A      9.692116  
    1399A      9.700319  1400A      9.713547  1401A      9.733354  
    1402A      9.765884  1403A      9.773331  1404A      9.789425  
    1405A      9.817547  1406A      9.832716  1407A      9.839886  
    1408A      9.848207  1409A      9.857424  1410A      9.865105  
    1411A      9.910330  1412A      9.920840  1413A      9.922507  
    1414A      9.969944  1415A      9.984211  1416A     10.026736  
    1417A     10.051363  1418A     10.057047  1419A     10.075261  
    1420A     10.102727  1421A     10.105272  1422A     10.113529  
    1423A     10.123581  1424A     10.127367  1425A     10.184652  
    1426A     10.192331  1427A     10.198458  1428A     10.207220  
    1429A     10.230198  1430A     10.233204  1431A     10.238834  
    1432A     10.242143  1433A     10.248053  1434A     10.255816  
    1435A     10.280608  1436A     10.285836  1437A     10.290738  
    1438A     10.300672  1439A     10.309919  1440A     10.314615  
    1441A     10.347158  1442A     10.375692  1443A     10.381741  
    1444A     10.391769  1445A     10.402262  1446A     10.417647  
    1447A     10.427332  1448A     10.433923  1449A     10.445222  
    1450A     10.454902  1451A     10.467351  1452A     10.472910  
    1453A     10.488766  1454A     10.511632  1455A     10.518179  
    1456A     10.526769  1457A     10.533834  1458A     10.536595  
    1459A     10.544636  1460A     10.560959  1461A     10.568001  
    1462A     10.591061  1463A     10.596791  1464A     10.621404  
    1465A     10.627122  1466A     10.629595  1467A     10.635772  
    1468A     10.645864  1469A     10.655747  1470A     10.666947  
    1471A     10.688751  1472A     10.701782  1473A     10.710552  
    1474A     10.741715  1475A     10.743377  1476A     10.767694  
    1477A     10.789628  1478A     10.790318  1479A     10.803457  
    1480A     10.834742  1481A     10.847211  1482A     10.855993  
    1483A     10.858925  1484A     10.878183  1485A     10.886433  
    1486A     10.893995  1487A     10.924998  1488A     10.932043  
    1489A     10.952141  1490A     10.966825  1491A     10.982748  
    1492A     11.014208  1493A     11.026534  1494A     11.032106  
    1495A     11.046936  1496A     11.054169  1497A     11.094282  
    1498A     11.103605  1499A     11.135247  1500A     11.147740  
    1501A     11.158565  1502A     11.169416  1503A     11.187853  
    1504A     11.197670  1505A     11.219577  1506A     11.235801  
    1507A     11.281973  1508A     11.288746  1509A     11.309384  
    1510A     11.322755  1511A     11.379933  1512A     11.382872  
    1513A     11.440344  1514A     11.480269  1515A     11.531105  
    1516A     11.532786  1517A     11.567590  1518A     11.589965  
    1519A     11.596277  1520A     11.598789  1521A     11.618521  
    1522A     11.625752  1523A     11.636661  1524A     11.647489  
    1525A     11.650720  1526A     11.657580  1527A     11.658359  
    1528A     11.664684  1529A     11.674892  1530A     11.686552  
    1531A     11.695300  1532A     11.697321  1533A     11.702822  
    1534A     11.714439  1535A     11.730863  1536A     11.784752  
    1537A     11.825535  1538A     11.868247  1539A     11.887600  
    1540A     11.948203  1541A     11.994678  1542A     12.003280  
    1543A     12.005616  1544A     12.009549  1545A     12.012141  
    1546A     12.025708  1547A     12.040183  1548A     12.045649  
    1549A     12.054544  1550A     12.059543  1551A     12.062939  
    1552A     12.074132  1553A     12.105914  1554A     12.111962  
    1555A     12.134010  1556A     12.135051  1557A     12.170697  
    1558A     12.176818  1559A     12.191915  1560A     12.208437  
    1561A     12.221084  1562A     12.256686  1563A     12.279471  
    1564A     12.282832  1565A     12.319135  1566A     12.352076  
    1567A     12.356364  1568A     12.370085  1569A     12.376712  
    1570A     12.388490  1571A     12.400229  1572A     12.407372  
    1573A     12.414225  1574A     12.434144  1575A     12.439433  
    1576A     12.446613  1577A     12.451955  1578A     12.505590  
    1579A     12.521134  1580A     12.538428  1581A     12.549825  
    1582A     12.561266  1583A     12.600942  1584A     12.646125  
    1585A     12.661422  1586A     12.692447  1587A     12.717889  
    1588A     12.725048  1589A     12.735543  1590A     12.744007  
    1591A     12.747225  1592A     12.748798  1593A     12.768255  
    1594A     12.770851  1595A     12.789982  1596A     12.808052  
    1597A     12.835215  1598A     12.842159  1599A     12.849566  
    1600A     12.852203  1601A     12.858823  1602A     12.861155  
    1603A     12.864033  1604A     12.892205  1605A     12.920984  
    1606A     12.927477  1607A     12.933657  1608A     12.947823  
    1609A     13.003400  1610A     13.027335  1611A     13.226659  
    1612A     13.276858  1613A     13.300738  1614A     13.395258  
    1615A     13.428466  1616A     13.443726  1617A     13.477005  
    1618A     13.501033  1619A     13.669546  1620A     13.762420  
    1621A     13.793578  1622A     13.805693  1623A     13.820848  
    1624A     13.861365  1625A     13.917967  1626A     13.960799  
    1627A     14.048886  1628A     14.161791  1629A     14.171944  
    1630A     14.191360  1631A     14.202084  1632A     14.216077  
    1633A     14.295744  1634A     14.384426  1635A     14.408239  
    1636A     14.430532  1637A     14.453953  1638A     14.465176  
    1639A     14.538166  1640A     14.542667  1641A     14.601704  
    1642A     14.677844  1643A     14.691428  1644A     14.702798  
    1645A     14.933175  1646A     14.938778  1647A     15.061698  
    1648A     15.071350  1649A     16.816200  1650A     16.960103  
    1651A     24.975480  1652A     25.279944  1653A     25.331373  
    1654A     25.357627  1655A     25.402627  1656A     26.129915  
    1657A     26.130459  1658A     26.475932  1659A     26.662277  
    1660A     26.729219  1661A     34.542997  1662A     34.931490  
    1663A     34.959267  1664A     42.849958  1665A     43.074887  
    1666A     43.119323  1667A     43.271585  1668A     43.311201  
    1669A     44.566914  1670A     44.832565  

    Final Occupation by Irrep:
              A 
    DOCC [    78 ]

  Energy converged.

  @DF-RHF Final Energy: -1077.49777869972468

   => Energetics <=

    Nuclear Repulsion Energy =           1638.2696123684520444
    One-Electron Energy =               -4735.0813289236575656
    Two-Electron Energy =                2019.3139378554810719
    Total Energy =                      -1077.4977786997246767



Properties will be evaluated at   0.000000,   0.000000,   0.000000 Bohr

Properties computed using the SCF density matrix

  Nuclear Dipole Moment: (a.u.)
     X:     9.1337      Y:     7.4118      Z:    -1.1525

  Electronic Dipole Moment: (a.u.)
     X:    -6.9318      Y:    -5.0651      Z:     2.0753

  Dipole Moment: (a.u.)
     X:     2.2019      Y:     2.3467      Z:     0.9228     Total:     3.3477

  Dipole Moment: (Debye)
     X:     5.5967      Y:     5.9648      Z:     2.3455     Total:     8.5090


*** tstop() called on hex15 at Mon Mar  5 23:45:01 2018
Module time:
	user time   =    1677.57 seconds =      27.96 minutes
	system time =     333.22 seconds =       5.55 minutes
	total time  =       1153 seconds =      19.22 minutes
Total time:
	user time   =    1677.57 seconds =      27.96 minutes
	system time =     333.22 seconds =       5.55 minutes
	total time  =       1153 seconds =      19.22 minutes

*** Psi4 exiting successfully. Buy a developer a beer!
