
    -----------------------------------------------------------------------
          Psi4: An Open-Source Ab Initio Electronic Structure Package
                               Psi4 1.2a1.dev875 

                         Git: Rev {symm_JK} 0ea9481 dirty


    R. M. Parrish, L. A. Burns, D. G. A. Smith, A. C. Simmonett,
    A. E. DePrince III, E. G. Hohenstein, U. Bozkaya, A. Yu. Sokolov,
    R. Di Remigio, R. M. Richard, J. F. Gonthier, A. M. James,
    H. R. McAlexander, A. Kumar, M. Saitow, X. Wang, B. P. Pritchard,
    P. Verma, H. F. Schaefer III, K. Patkowski, R. A. King, E. F. Valeev,
    F. A. Evangelista, J. M. Turney, T. D. Crawford, and C. D. Sherrill,
    J. Chem. Theory Comput. 13(7) pp 3185--3197 (2017).
    (doi: 10.1021/acs.jctc.7b00174)

    -----------------------------------------------------------------------


    Psi4 started on: Sunday, 04 March 2018 12:42PM

    Process ID:  11248
    PSIDATADIR: /theoryfs2/ds/schieber/Gits/mspsi4/objdir3/stage/usr/local/psi4/share/psi4
    Memory:     500.0 MiB
    Threads:    6
    
  ==> Input File <==

--------------------------------------------------------------------------
memory 60 Gb

molecule protein_63 {
0 1
 N   18.626  30.444   6.627
 C   17.853  29.516   5.837
 C   16.945  30.292   4.886
 O   15.843  30.678   5.237
 C   17.047  28.642   6.811
 C   16.316  27.513   6.146
 O   16.236  27.458   4.905
 O   15.762  26.696   6.882
 N    4.567  24.042   8.795
 C    4.886  22.777   8.145
 C    6.265  22.720   7.521
 O    6.723  23.689   6.900
 N   17.407  27.054  -1.437
 C   17.227  26.751  -0.026
 C   18.555  26.446   0.653
 O   19.003  25.309   0.692
 C   16.258  25.572   0.084
 C   15.759  25.336   1.493
 O   16.399  25.780   2.453
 O   14.731  24.675   1.645
 N   19.106  26.199   3.688
 C   18.957  25.372   4.876
 C   18.845  23.903   4.520
 O   18.660  23.054   5.417
 N   20.536  20.559   2.918
 C   21.779  19.912   2.496
 C   21.693  19.374   1.107
 O   22.642  19.502   0.361
 C   22.169  18.827   3.447
 C   22.272  19.337   4.844
 O   22.714  20.482   5.029
 O   21.836  18.647   5.778
 H   18.180  30.990   7.295
 H   18.510  28.835   5.249
 H   16.336  29.276   7.377
 H   17.778  28.186   7.516
 H   15.845  26.702   7.843
 H    4.436  24.871   8.195
 H    4.744  21.930   8.802
 H    4.143  22.632   7.335
 H   17.860  26.421  -2.023
 H   16.724  27.595   0.500
 H   16.724  24.663  -0.337
 H   15.363  25.845  -0.519
 H   16.737  25.171   3.109
 H   18.314  26.771   3.377
 H   18.015  25.631   5.391
 H   19.792  25.567   5.577
 H   19.976  20.073   3.597
 H   22.602  20.664   2.537
 H   23.175  18.459   3.144
 H   21.465  17.966   3.392
 H   21.492  17.752   5.634
 H   19.646  30.419   6.619
 H   17.295  30.415   3.850
 H    4.454  24.117   9.806
 H    6.887  21.864   7.822
 H   16.947  27.858  -1.864
 H   19.060  27.284   1.155
 H   20.034  26.347   3.290
 H   18.824  23.654   3.449
 H   20.197  21.395   2.443
 H   20.727  18.956   0.786
}

set {
basis cc-pvtz
scf_type df
guess sad
DF_SCF_TYPE SYMM_JK
}

energy('HF')
--------------------------------------------------------------------------

  Memory set to  55.879 GiB by Python driver.

*** tstart() called on hex15
*** at Sun Mar  4 12:42:24 2018

   => Loading Basis Set <=

    Name: CC-PVTZ
    Role: ORBITAL
    Keyword: BASIS
    atoms 1, 9, 13, 21, 25                                   entry N          line   224 file /theoryfs2/ds/schieber/Gits/mspsi4/objdir3/stage/usr/local/psi4/share/psi4/basis/cc-pvtz.gbs 
    atoms 2-3, 5-6, 10-11, 14-15, 17-18, 22-23, 26-27, 29-30 entry C          line   186 file /theoryfs2/ds/schieber/Gits/mspsi4/objdir3/stage/usr/local/psi4/share/psi4/basis/cc-pvtz.gbs 
    atoms 4, 7-8, 12, 16, 19-20, 24, 28, 31-32               entry O          line   262 file /theoryfs2/ds/schieber/Gits/mspsi4/objdir3/stage/usr/local/psi4/share/psi4/basis/cc-pvtz.gbs 
    atoms 33-63                                              entry H          line    23 file /theoryfs2/ds/schieber/Gits/mspsi4/objdir3/stage/usr/local/psi4/share/psi4/basis/cc-pvtz.gbs 


         ---------------------------------------------------------
                                   SCF
            by Justin Turney, Rob Parrish, Andy Simmonett
                             and Daniel Smith
                              RHF Reference
                        6 Threads,  57220 MiB Core
         ---------------------------------------------------------

  ==> Geometry <==

    Molecular point group: c1
    Full point group: C1

    Geometry (in Angstrom), charge = 0, multiplicity = 1:

       Center              X                  Y                   Z               Mass       
    ------------   -----------------  -----------------  -----------------  -----------------
           N          1.657504219370     5.864960045694     2.581113844373    14.003074004780
           C          0.884504219370     4.936960045694     1.791113844373    12.000000000000
           C         -0.023495780630     5.712960045694     0.840113844373    12.000000000000
           O         -1.125495780630     6.098960045694     1.191113844373    15.994914619560
           C          0.078504219370     4.062960045694     2.765113844373    12.000000000000
           C         -0.652495780630     2.933960045694     2.100113844373    12.000000000000
           O         -0.732495780630     2.878960045694     0.859113844373    15.994914619560
           O         -1.206495780630     2.116960045694     2.836113844373    15.994914619560
           N        -12.401495780630    -0.537039954306     4.749113844373    14.003074004780
           C        -12.082495780630    -1.802039954306     4.099113844373    12.000000000000
           C        -10.703495780630    -1.859039954306     3.475113844373    12.000000000000
           O        -10.245495780630    -0.890039954306     2.854113844373    15.994914619560
           N          0.438504219370     2.474960045694    -5.482886155627    14.003074004780
           C          0.258504219370     2.171960045694    -4.071886155627    12.000000000000
           C          1.586504219370     1.866960045694    -3.392886155627    12.000000000000
           O          2.034504219370     0.729960045694    -3.353886155627    15.994914619560
           C         -0.710495780630     0.992960045694    -3.961886155627    12.000000000000
           C         -1.209495780630     0.756960045694    -2.552886155627    12.000000000000
           O         -0.569495780630     1.200960045694    -1.592886155627    15.994914619560
           O         -2.237495780630     0.095960045694    -2.400886155627    15.994914619560
           N          2.137504219370     1.619960045694    -0.357886155627    14.003074004780
           C          1.988504219370     0.792960045694     0.830113844373    12.000000000000
           C          1.876504219370    -0.676039954306     0.474113844373    12.000000000000
           O          1.691504219370    -1.525039954306     1.371113844373    15.994914619560
           N          3.567504219370    -4.020039954306    -1.127886155627    14.003074004780
           C          4.810504219370    -4.667039954306    -1.549886155627    12.000000000000
           C          4.724504219370    -5.205039954306    -2.938886155627    12.000000000000
           O          5.673504219370    -5.077039954306    -3.684886155627    15.994914619560
           C          5.200504219370    -5.752039954306    -0.598886155627    12.000000000000
           C          5.303504219370    -5.242039954306     0.798113844373    12.000000000000
           O          5.745504219370    -4.097039954306     0.983113844373    15.994914619560
           O          4.867504219370    -5.932039954306     1.732113844373    15.994914619560
           H          1.211504219370     6.410960045694     3.249113844373     1.007825032070
           H          1.541504219370     4.255960045694     1.203113844373     1.007825032070
           H         -0.632495780630     4.696960045694     3.331113844373     1.007825032070
           H          0.809504219370     3.606960045694     3.470113844373     1.007825032070
           H         -1.123495780630     2.122960045694     3.797113844373     1.007825032070
           H        -12.532495780630     0.291960045694     4.149113844373     1.007825032070
           H        -12.224495780630    -2.649039954306     4.756113844373     1.007825032070
           H        -12.825495780630    -1.947039954306     3.289113844373     1.007825032070
           H          0.891504219370     1.841960045694    -6.068886155627     1.007825032070
           H         -0.244495780630     3.015960045694    -3.545886155627     1.007825032070
           H         -0.244495780630     0.083960045694    -4.382886155627     1.007825032070
           H         -1.605495780630     1.265960045694    -4.564886155627     1.007825032070
           H         -0.231495780630     0.591960045694    -0.936886155627     1.007825032070
           H          1.345504219370     2.191960045694    -0.668886155627     1.007825032070
           H          1.046504219370     1.051960045694     1.345113844373     1.007825032070
           H          2.823504219370     0.987960045694     1.531113844373     1.007825032070
           H          3.007504219370    -4.506039954306    -0.448886155627     1.007825032070
           H          5.633504219370    -3.915039954306    -1.508886155627     1.007825032070
           H          6.206504219370    -6.120039954306    -0.901886155627     1.007825032070
           H          4.496504219370    -6.613039954306    -0.653886155627     1.007825032070
           H          4.523504219370    -6.827039954306     1.588113844373     1.007825032070
           H          2.677504219370     5.839960045694     2.573113844373     1.007825032070
           H          0.326504219370     5.835960045694    -0.195886155627     1.007825032070
           H        -12.514495780630    -0.462039954306     5.760113844373     1.007825032070
           H        -10.081495780630    -2.715039954306     3.776113844373     1.007825032070
           H         -0.021495780630     3.278960045694    -5.909886155627     1.007825032070
           H          2.091504219370     2.704960045694    -2.890886155627     1.007825032070
           H          3.065504219370     1.767960045694    -0.755886155627     1.007825032070
           H          1.855504219370    -0.925039954306    -0.596886155627     1.007825032070
           H          3.228504219370    -3.184039954306    -1.602886155627     1.007825032070
           H          3.758504219370    -5.623039954306    -3.259886155627     1.007825032070

  Running in c1 symmetry.

  Rotational constants: A =      0.00221  B =      0.00111  C =      0.00093 [cm^-1]
  Rotational constants: A =     66.16714  B =     33.30218  C =     27.81539 [MHz]
  Nuclear repulsion = 2982.748493552713626

  Charge       = 0
  Multiplicity = 1
  Electrons    = 250
  Nalpha       = 125
  Nbeta        = 125

  ==> Algorithm <==

  SCF Algorithm Type is DF.
  DIIS enabled.
  MOM disabled.
  Fractional occupation disabled.
  Guess Type is SAD.
  Energy threshold   = 1.00e-06
  Density threshold  = 1.00e-06
  Integral threshold = 0.00e+00

  ==> Primary Basis <==

  Basis Set: CC-PVTZ
    Blend: CC-PVTZ
    Number of shells: 506
    Number of basis function: 1394
    Number of Cartesian functions: 1585
    Spherical Harmonics?: true
    Max angular momentum: 3

   => Loading Basis Set <=

    Name: (CC-PVTZ AUX)
    Role: JKFIT
    Keyword: DF_BASIS_SCF
    atoms 1, 9, 13, 21, 25                                   entry N          line   177 file /theoryfs2/ds/schieber/Gits/mspsi4/objdir3/stage/usr/local/psi4/share/psi4/basis/cc-pvtz-jkfit.gbs 
    atoms 2-3, 5-6, 10-11, 14-15, 17-18, 22-23, 26-27, 29-30 entry C          line   125 file /theoryfs2/ds/schieber/Gits/mspsi4/objdir3/stage/usr/local/psi4/share/psi4/basis/cc-pvtz-jkfit.gbs 
    atoms 4, 7-8, 12, 16, 19-20, 24, 28, 31-32               entry O          line   229 file /theoryfs2/ds/schieber/Gits/mspsi4/objdir3/stage/usr/local/psi4/share/psi4/basis/cc-pvtz-jkfit.gbs 
    atoms 33-63                                              entry H          line    51 file /theoryfs2/ds/schieber/Gits/mspsi4/objdir3/stage/usr/local/psi4/share/psi4/basis/cc-pvtz-jkfit.gbs 

  ==> Pre-Iterations <==

   -------------------------------------------------------
    Irrep   Nso     Nmo     Nalpha   Nbeta   Ndocc  Nsocc
   -------------------------------------------------------
     A       1394    1394       0       0       0       0
   -------------------------------------------------------
    Total    1394    1394     125     125     125       0
   -------------------------------------------------------

  ==> Integral Setup <==


    ==> DF_Helper <==
      nao           = 1394
      naux          = 3458
      Scwarz cutoff = 1.000000E-12
      mem (doubles) = 5625000000
      nthreads      = 6
      Algorithm     = STORE
      AO_core?      = 1
      MO_core?      = 0
      hold metric   = 0
      metric power  = -5.000000E-01
  Fitting condition = 1.000000E-12
  Mask sparsity (%) = (66.262255)


  Minimum eigenvalue in the overlap matrix is 2.4881040691E-04.
  Using Symmetric Orthogonalization.

  SCF Guess: Superposition of Atomic Densities via on-the-fly atomic UHF.

  ==> Iterations <==

                           Total Energy        Delta E     RMS |[F,P]|

   @DF-RHF iter   0: -1731.24166623335532   -1.73124e+03   1.81360e-02 
   @DF-RHF iter   1: -1718.90460917731707    1.23371e+01   2.48631e-03 
   @DF-RHF iter   2: -1719.64189965221362   -7.37290e-01   1.87039e-03 DIIS
   @DF-RHF iter   3: -1720.07360066308365   -4.31701e-01   3.56433e-04 DIIS
   @DF-RHF iter   4: -1720.11475449712134   -4.11538e-02   1.36794e-04 DIIS
   @DF-RHF iter   5: -1720.12208352982088   -7.32903e-03   6.27349e-05 DIIS
   @DF-RHF iter   6: -1720.12420013270821   -2.11660e-03   2.90386e-05 DIIS
   @DF-RHF iter   7: -1720.12476129335641   -5.61161e-04   1.35488e-05 DIIS
   @DF-RHF iter   8: -1720.12487946498186   -1.18172e-04   6.31908e-06 DIIS
   @DF-RHF iter   9: -1720.12491171793022   -3.22529e-05   2.92669e-06 DIIS
   @DF-RHF iter  10: -1720.12492011982795   -8.40190e-06   1.35721e-06 DIIS
   @DF-RHF iter  11: -1720.12492186315239   -1.74332e-06   5.31203e-07 DIIS
   @DF-RHF iter  12: -1720.12492208074491   -2.17593e-07   2.34038e-07 DIIS

  ==> Post-Iterations <==

    Orbital Energies (a.u.)
    -----------------------

    Doubly Occupied:                                                      

       1A    -20.641787     2A    -20.633442     3A    -20.600473  
       4A    -20.565600     5A    -20.557237     6A    -20.555418  
       7A    -20.555238     8A    -20.552104     9A    -20.536377  
      10A    -20.516625    11A    -20.511433    12A    -15.553546  
      13A    -15.547197    14A    -15.545974    15A    -15.539514  
      16A    -15.538142    17A    -11.393495    18A    -11.379921  
      19A    -11.362690    20A    -11.342038    21A    -11.334542  
      22A    -11.333115    23A    -11.328314    24A    -11.323983  
      25A    -11.293843    26A    -11.287940    27A    -11.279125  
      28A    -11.273884    29A    -11.271371    30A    -11.263660  
      31A    -11.262080    32A    -11.236086    33A     -1.525029  
      34A     -1.510245    35A     -1.496290    36A     -1.394887  
      37A     -1.389764    38A     -1.388766    39A     -1.367202  
      40A     -1.365051    41A     -1.354198    42A     -1.336925  
      43A     -1.329259    44A     -1.210443    45A     -1.198989  
      46A     -1.190602    47A     -1.182540    48A     -1.165152  
      49A     -1.053250    50A     -1.052778    51A     -1.040718  
      52A     -0.964150    53A     -0.962123    54A     -0.947030  
      55A     -0.937875    56A     -0.934539    57A     -0.903567  
      58A     -0.888044    59A     -0.872173    60A     -0.807446  
      61A     -0.799884    62A     -0.796430    63A     -0.792825  
      64A     -0.791629    65A     -0.744583    66A     -0.731279  
      67A     -0.728939    68A     -0.715695    69A     -0.709332  
      70A     -0.703069    71A     -0.695537    72A     -0.692165  
      73A     -0.690388    74A     -0.685073    75A     -0.682317  
      76A     -0.677055    77A     -0.663762    78A     -0.662788  
      79A     -0.659145    80A     -0.655707    81A     -0.655432  
      82A     -0.650604    83A     -0.645644    84A     -0.640047  
      85A     -0.631920    86A     -0.628174    87A     -0.627054  
      88A     -0.626336    89A     -0.622865    90A     -0.619516  
      91A     -0.607627    92A     -0.605706    93A     -0.587497  
      94A     -0.574704    95A     -0.570670    96A     -0.564753  
      97A     -0.559477    98A     -0.555853    99A     -0.547363  
     100A     -0.546051   101A     -0.530928   102A     -0.528778  
     103A     -0.527610   104A     -0.518368   105A     -0.512143  
     106A     -0.503188   107A     -0.498735   108A     -0.486378  
     109A     -0.485026   110A     -0.470853   111A     -0.458966  
     112A     -0.456533   113A     -0.453487   114A     -0.445355  
     115A     -0.441600   116A     -0.440781   117A     -0.437660  
     118A     -0.437473   119A     -0.431959   120A     -0.430269  
     121A     -0.383470   122A     -0.379330   123A     -0.374847  
     124A     -0.373812   125A     -0.366537  

    Virtual:                                                              

     126A      0.101264   127A      0.104524   128A      0.105591  
     129A      0.111849   130A      0.113271   131A      0.116597  
     132A      0.119715   133A      0.124794   134A      0.143730  
     135A      0.145738   136A      0.146994   137A      0.151898  
     138A      0.154512   139A      0.159619   140A      0.161658  
     141A      0.165176   142A      0.166492   143A      0.168877  
     144A      0.173332   145A      0.176917   146A      0.179962  
     147A      0.186045   148A      0.191104   149A      0.195948  
     150A      0.197922   151A      0.198242   152A      0.204018  
     153A      0.205656   154A      0.215132   155A      0.221465  
     156A      0.227456   157A      0.228578   158A      0.234266  
     159A      0.237366   160A      0.242151   161A      0.248189  
     162A      0.267100   163A      0.283377   164A      0.283670  
     165A      0.290902   166A      0.300615   167A      0.309410  
     168A      0.311433   169A      0.315165   170A      0.329159  
     171A      0.337138   172A      0.342735   173A      0.345227  
     174A      0.350343   175A      0.351497   176A      0.356478  
     177A      0.357321   178A      0.359788   179A      0.362371  
     180A      0.371177   181A      0.375934   182A      0.382091  
     183A      0.385882   184A      0.389930   185A      0.403153  
     186A      0.404537   187A      0.408091   188A      0.415955  
     189A      0.422277   190A      0.427624   191A      0.432332  
     192A      0.436428   193A      0.441745   194A      0.451592  
     195A      0.452357   196A      0.462875   197A      0.464001  
     198A      0.465837   199A      0.466914   200A      0.468284  
     201A      0.472633   202A      0.478639   203A      0.482584  
     204A      0.484765   205A      0.495969   206A      0.496563  
     207A      0.497585   208A      0.502175   209A      0.509136  
     210A      0.512002   211A      0.515240   212A      0.518058  
     213A      0.524104   214A      0.528340   215A      0.534814  
     216A      0.543130   217A      0.547113   218A      0.551583  
     219A      0.551626   220A      0.554035   221A      0.559528  
     222A      0.564931   223A      0.566627   224A      0.566650  
     225A      0.567601   226A      0.571390   227A      0.575639  
     228A      0.576692   229A      0.579111   230A      0.582646  
     231A      0.584719   232A      0.588383   233A      0.589497  
     234A      0.595492   235A      0.596427   236A      0.599004  
     237A      0.602215   238A      0.604506   239A      0.609240  
     240A      0.612077   241A      0.617384   242A      0.621764  
     243A      0.623377   244A      0.629210   245A      0.629471  
     246A      0.630083   247A      0.631398   248A      0.634793  
     249A      0.637623   250A      0.644845   251A      0.648570  
     252A      0.649441   253A      0.653186   254A      0.655022  
     255A      0.656273   256A      0.660665   257A      0.661535  
     258A      0.663834   259A      0.672709   260A      0.674932  
     261A      0.676108   262A      0.680804   263A      0.685996  
     264A      0.687125   265A      0.689911   266A      0.693203  
     267A      0.696072   268A      0.699512   269A      0.703661  
     270A      0.709940   271A      0.710888   272A      0.711787  
     273A      0.713958   274A      0.720997   275A      0.721115  
     276A      0.725578   277A      0.729509   278A      0.731548  
     279A      0.736791   280A      0.741281   281A      0.743414  
     282A      0.745680   283A      0.749702   284A      0.751451  
     285A      0.751845   286A      0.759887   287A      0.765802  
     288A      0.767092   289A      0.771404   290A      0.774772  
     291A      0.782093   292A      0.786365   293A      0.788604  
     294A      0.791991   295A      0.792519   296A      0.797631  
     297A      0.803000   298A      0.803899   299A      0.806713  
     300A      0.809740   301A      0.816429   302A      0.830437  
     303A      0.833816   304A      0.838790   305A      0.844548  
     306A      0.844720   307A      0.847664   308A      0.851012  
     309A      0.856199   310A      0.858043   311A      0.863736  
     312A      0.869566   313A      0.878693   314A      0.881947  
     315A      0.884108   316A      0.891737   317A      0.893961  
     318A      0.898452   319A      0.901500   320A      0.902742  
     321A      0.911758   322A      0.913502   323A      0.915082  
     324A      0.922753   325A      0.926310   326A      0.936462  
     327A      0.936465   328A      0.940474   329A      0.942016  
     330A      0.942266   331A      0.946185   332A      0.953810  
     333A      0.959870   334A      0.963412   335A      0.963433  
     336A      0.966837   337A      0.972712   338A      0.979505  
     339A      0.984244   340A      0.987759   341A      0.991718  
     342A      0.999156   343A      1.000611   344A      1.006861  
     345A      1.010443   346A      1.017866   347A      1.021741  
     348A      1.030427   349A      1.035687   350A      1.037978  
     351A      1.049019   352A      1.052200   353A      1.054931  
     354A      1.062040   355A      1.062937   356A      1.066075  
     357A      1.068373   358A      1.085369   359A      1.087062  
     360A      1.089142   361A      1.102079   362A      1.103796  
     363A      1.108556   364A      1.120237   365A      1.124047  
     366A      1.126525   367A      1.132192   368A      1.132576  
     369A      1.135896   370A      1.141918   371A      1.145238  
     372A      1.149558   373A      1.153971   374A      1.160572  
     375A      1.164038   376A      1.172697   377A      1.183649  
     378A      1.185764   379A      1.194951   380A      1.194953  
     381A      1.198314   382A      1.200382   383A      1.201988  
     384A      1.207742   385A      1.209635   386A      1.212888  
     387A      1.217545   388A      1.225237   389A      1.225673  
     390A      1.232431   391A      1.236992   392A      1.238193  
     393A      1.245724   394A      1.246456   395A      1.255982  
     396A      1.257912   397A      1.262725   398A      1.264285  
     399A      1.269705   400A      1.280077   401A      1.282101  
     402A      1.284311   403A      1.287048   404A      1.297086  
     405A      1.298709   406A      1.302336   407A      1.303961  
     408A      1.310075   409A      1.311252   410A      1.313752  
     411A      1.317211   412A      1.322368   413A      1.329421  
     414A      1.331567   415A      1.335516   416A      1.340288  
     417A      1.344222   418A      1.345648   419A      1.346767  
     420A      1.348924   421A      1.357510   422A      1.359336  
     423A      1.362861   424A      1.373229   425A      1.377822  
     426A      1.379559   427A      1.386022   428A      1.389785  
     429A      1.395977   430A      1.397105   431A      1.400033  
     432A      1.410370   433A      1.415382   434A      1.416214  
     435A      1.420392   436A      1.430148   437A      1.431653  
     438A      1.438117   439A      1.439577   440A      1.442453  
     441A      1.450706   442A      1.453295   443A      1.456288  
     444A      1.463033   445A      1.469479   446A      1.476501  
     447A      1.482651   448A      1.487065   449A      1.490577  
     450A      1.496343   451A      1.504757   452A      1.506221  
     453A      1.514897   454A      1.515583   455A      1.516936  
     456A      1.522853   457A      1.523767   458A      1.526764  
     459A      1.527485   460A      1.535027   461A      1.541632  
     462A      1.551679   463A      1.555593   464A      1.563939  
     465A      1.572388   466A      1.575887   467A      1.578396  
     468A      1.583858   469A      1.589804   470A      1.590721  
     471A      1.596941   472A      1.598180   473A      1.603690  
     474A      1.608245   475A      1.610943   476A      1.614589  
     477A      1.621766   478A      1.625432   479A      1.626921  
     480A      1.631518   481A      1.633686   482A      1.640088  
     483A      1.648922   484A      1.650221   485A      1.652775  
     486A      1.658658   487A      1.661018   488A      1.663543  
     489A      1.670108   490A      1.672950   491A      1.677050  
     492A      1.686610   493A      1.693150   494A      1.694694  
     495A      1.707542   496A      1.711376   497A      1.723115  
     498A      1.723871   499A      1.729286   500A      1.736855  
     501A      1.746719   502A      1.754254   503A      1.755543  
     504A      1.761235   505A      1.767074   506A      1.772142  
     507A      1.781671   508A      1.783300   509A      1.790419  
     510A      1.797226   511A      1.807558   512A      1.818766  
     513A      1.826061   514A      1.835549   515A      1.839056  
     516A      1.854766   517A      1.864227   518A      1.865741  
     519A      1.890290   520A      1.893021   521A      1.908715  
     522A      1.909849   523A      1.914787   524A      1.923532  
     525A      1.927049   526A      1.932038   527A      1.938352  
     528A      1.941072   529A      1.947705   530A      1.951794  
     531A      1.955439   532A      1.962211   533A      1.966058  
     534A      1.974004   535A      1.980487   536A      1.991591  
     537A      1.992334   538A      1.996224   539A      1.998937  
     540A      2.003510   541A      2.007404   542A      2.008638  
     543A      2.013416   544A      2.021010   545A      2.024874  
     546A      2.024937   547A      2.038358   548A      2.038904  
     549A      2.058282   550A      2.061365   551A      2.065183  
     552A      2.069001   553A      2.081313   554A      2.083711  
     555A      2.101918   556A      2.105434   557A      2.113655  
     558A      2.120845   559A      2.135741   560A      2.147844  
     561A      2.157730   562A      2.170443   563A      2.172768  
     564A      2.181354   565A      2.225639   566A      2.228772  
     567A      2.259890   568A      2.269609   569A      2.277826  
     570A      2.284286   571A      2.289161   572A      2.298229  
     573A      2.299887   574A      2.319052   575A      2.321527  
     576A      2.339474   577A      2.355688   578A      2.361403  
     579A      2.365503   580A      2.369760   581A      2.379414  
     582A      2.388447   583A      2.390600   584A      2.393283  
     585A      2.398739   586A      2.403673   587A      2.409538  
     588A      2.429249   589A      2.433751   590A      2.435411  
     591A      2.438244   592A      2.455469   593A      2.460732  
     594A      2.467878   595A      2.470012   596A      2.477019  
     597A      2.481660   598A      2.483864   599A      2.490703  
     600A      2.498859   601A      2.505470   602A      2.513147  
     603A      2.516520   604A      2.541622   605A      2.542184  
     606A      2.544915   607A      2.555464   608A      2.568028  
     609A      2.579832   610A      2.587495   611A      2.610190  
     612A      2.623183   613A      2.638179   614A      2.646369  
     615A      2.659073   616A      2.660858   617A      2.665242  
     618A      2.687629   619A      2.702594   620A      2.703051  
     621A      2.715041   622A      2.730568   623A      2.734015  
     624A      2.742015   625A      2.743074   626A      2.763842  
     627A      2.764884   628A      2.769057   629A      2.771104  
     630A      2.777827   631A      2.780825   632A      2.786552  
     633A      2.788320   634A      2.794589   635A      2.799883  
     636A      2.817920   637A      2.818207   638A      2.823464  
     639A      2.837674   640A      2.846826   641A      2.848845  
     642A      2.853432   643A      2.862001   644A      2.866876  
     645A      2.868383   646A      2.874503   647A      2.887893  
     648A      2.893599   649A      2.900100   650A      2.907267  
     651A      2.908755   652A      2.920797   653A      2.924440  
     654A      2.933476   655A      2.939522   656A      2.943333  
     657A      2.948557   658A      2.953319   659A      2.957432  
     660A      2.960507   661A      2.967431   662A      2.973682  
     663A      2.974735   664A      2.978414   665A      2.979908  
     666A      2.990166   667A      2.999403   668A      3.004887  
     669A      3.006948   670A      3.012784   671A      3.020826  
     672A      3.021788   673A      3.024803   674A      3.030247  
     675A      3.037923   676A      3.043191   677A      3.047310  
     678A      3.049442   679A      3.068817   680A      3.073279  
     681A      3.076836   682A      3.080792   683A      3.085968  
     684A      3.088551   685A      3.089262   686A      3.103683  
     687A      3.117074   688A      3.131329   689A      3.134387  
     690A      3.137651   691A      3.147541   692A      3.156181  
     693A      3.162530   694A      3.163997   695A      3.170813  
     696A      3.173465   697A      3.174994   698A      3.182404  
     699A      3.194254   700A      3.196120   701A      3.200406  
     702A      3.203209   703A      3.204248   704A      3.208319  
     705A      3.211780   706A      3.216566   707A      3.223116  
     708A      3.226586   709A      3.233085   710A      3.243877  
     711A      3.248029   712A      3.249126   713A      3.258342  
     714A      3.261669   715A      3.266122   716A      3.267595  
     717A      3.274091   718A      3.278474   719A      3.285573  
     720A      3.287292   721A      3.289075   722A      3.295625  
     723A      3.295755   724A      3.298531   725A      3.305094  
     726A      3.308164   727A      3.312068   728A      3.320391  
     729A      3.321483   730A      3.323046   731A      3.325154  
     732A      3.326109   733A      3.335966   734A      3.336925  
     735A      3.338345   736A      3.348329   737A      3.351190  
     738A      3.356829   739A      3.359480   740A      3.363215  
     741A      3.371139   742A      3.378715   743A      3.380763  
     744A      3.384826   745A      3.389870   746A      3.391603  
     747A      3.400109   748A      3.401776   749A      3.402104  
     750A      3.406322   751A      3.408367   752A      3.416541  
     753A      3.420937   754A      3.424429   755A      3.426349  
     756A      3.432300   757A      3.434422   758A      3.438593  
     759A      3.442632   760A      3.445309   761A      3.449733  
     762A      3.451611   763A      3.457841   764A      3.462463  
     765A      3.464286   766A      3.465616   767A      3.469049  
     768A      3.472751   769A      3.475670   770A      3.478552  
     771A      3.483441   772A      3.483607   773A      3.493795  
     774A      3.495777   775A      3.497589   776A      3.500161  
     777A      3.500706   778A      3.503511   779A      3.507634  
     780A      3.510543   781A      3.514097   782A      3.515357  
     783A      3.524609   784A      3.526826   785A      3.529904  
     786A      3.532773   787A      3.533243   788A      3.539455  
     789A      3.549527   790A      3.556844   791A      3.557166  
     792A      3.558107   793A      3.559155   794A      3.568699  
     795A      3.573383   796A      3.582223   797A      3.590956  
     798A      3.593016   799A      3.601161   800A      3.603875  
     801A      3.609196   802A      3.611998   803A      3.615925  
     804A      3.624609   805A      3.626645   806A      3.636250  
     807A      3.640105   808A      3.650479   809A      3.650830  
     810A      3.653298   811A      3.657121   812A      3.660406  
     813A      3.664819   814A      3.669262   815A      3.670877  
     816A      3.684997   817A      3.689044   818A      3.690313  
     819A      3.692308   820A      3.699566   821A      3.705771  
     822A      3.710964   823A      3.713343   824A      3.717110  
     825A      3.719929   826A      3.722064   827A      3.725611  
     828A      3.734268   829A      3.737884   830A      3.748188  
     831A      3.751397   832A      3.754569   833A      3.755667  
     834A      3.760878   835A      3.768556   836A      3.771816  
     837A      3.778161   838A      3.780082   839A      3.796561  
     840A      3.800852   841A      3.802986   842A      3.804710  
     843A      3.807376   844A      3.817844   845A      3.826350  
     846A      3.829425   847A      3.833039   848A      3.838542  
     849A      3.842107   850A      3.843932   851A      3.849328  
     852A      3.850510   853A      3.850899   854A      3.854657  
     855A      3.859248   856A      3.861145   857A      3.867328  
     858A      3.877804   859A      3.878815   860A      3.888263  
     861A      3.890391   862A      3.896473   863A      3.904962  
     864A      3.907999   865A      3.910921   866A      3.916490  
     867A      3.917744   868A      3.920768   869A      3.924148  
     870A      3.933984   871A      3.937666   872A      3.941355  
     873A      3.943029   874A      3.952155   875A      3.956502  
     876A      3.959166   877A      3.960599   878A      3.967740  
     879A      3.972232   880A      3.976522   881A      3.983380  
     882A      3.985439   883A      3.995004   884A      3.995705  
     885A      3.999297   886A      4.012398   887A      4.013558  
     888A      4.015111   889A      4.023553   890A      4.024081  
     891A      4.029194   892A      4.029415   893A      4.038647  
     894A      4.049547   895A      4.051413   896A      4.054036  
     897A      4.056310   898A      4.067285   899A      4.077833  
     900A      4.080015   901A      4.085941   902A      4.091317  
     903A      4.094626   904A      4.107140   905A      4.113286  
     906A      4.120130   907A      4.121014   908A      4.121789  
     909A      4.123253   910A      4.126485   911A      4.135395  
     912A      4.138037   913A      4.140213   914A      4.149425  
     915A      4.155999   916A      4.158676   917A      4.164639  
     918A      4.166688   919A      4.169609   920A      4.172128  
     921A      4.172759   922A      4.174364   923A      4.176278  
     924A      4.183221   925A      4.198449   926A      4.199462  
     927A      4.202720   928A      4.206426   929A      4.208331  
     930A      4.209503   931A      4.214207   932A      4.219171  
     933A      4.220018   934A      4.224622   935A      4.233202  
     936A      4.244638   937A      4.257640   938A      4.261514  
     939A      4.266654   940A      4.268073   941A      4.272502  
     942A      4.274262   943A      4.275851   944A      4.282465  
     945A      4.287089   946A      4.292843   947A      4.294315  
     948A      4.296732   949A      4.299517   950A      4.304126  
     951A      4.312205   952A      4.317010   953A      4.321302  
     954A      4.324400   955A      4.326222   956A      4.327927  
     957A      4.334032   958A      4.339296   959A      4.346739  
     960A      4.351754   961A      4.352313   962A      4.360508  
     963A      4.364423   964A      4.370709   965A      4.372504  
     966A      4.378404   967A      4.382416   968A      4.384772  
     969A      4.389492   970A      4.389690   971A      4.396445  
     972A      4.397534   973A      4.406523   974A      4.410862  
     975A      4.419993   976A      4.426024   977A      4.429483  
     978A      4.431113   979A      4.433923   980A      4.440333  
     981A      4.448655   982A      4.453125   983A      4.456192  
     984A      4.463909   985A      4.464243   986A      4.470900  
     987A      4.471053   988A      4.476277   989A      4.478629  
     990A      4.491058   991A      4.491415   992A      4.497921  
     993A      4.503272   994A      4.514348   995A      4.523236  
     996A      4.528100   997A      4.532293   998A      4.535363  
     999A      4.542118  1000A      4.548385  1001A      4.550128  
    1002A      4.553205  1003A      4.558597  1004A      4.561524  
    1005A      4.571959  1006A      4.574224  1007A      4.574931  
    1008A      4.577399  1009A      4.579459  1010A      4.589178  
    1011A      4.590794  1012A      4.594096  1013A      4.600677  
    1014A      4.607847  1015A      4.613471  1016A      4.615266  
    1017A      4.618753  1018A      4.623941  1019A      4.625323  
    1020A      4.633881  1021A      4.637360  1022A      4.641930  
    1023A      4.648168  1024A      4.655798  1025A      4.662136  
    1026A      4.666766  1027A      4.674994  1028A      4.680234  
    1029A      4.684273  1030A      4.686776  1031A      4.699646  
    1032A      4.703078  1033A      4.708423  1034A      4.710912  
    1035A      4.719150  1036A      4.724207  1037A      4.726195  
    1038A      4.732006  1039A      4.739613  1040A      4.744684  
    1041A      4.745133  1042A      4.752438  1043A      4.759113  
    1044A      4.765550  1045A      4.767870  1046A      4.777634  
    1047A      4.779878  1048A      4.783823  1049A      4.796608  
    1050A      4.805681  1051A      4.807760  1052A      4.812281  
    1053A      4.815221  1054A      4.818057  1055A      4.824870  
    1056A      4.840348  1057A      4.854340  1058A      4.861169  
    1059A      4.877727  1060A      4.880396  1061A      4.884169  
    1062A      4.887111  1063A      4.894338  1064A      4.910114  
    1065A      4.918957  1066A      4.922702  1067A      4.929847  
    1068A      4.934612  1069A      4.953947  1070A      4.963601  
    1071A      4.976237  1072A      4.980587  1073A      5.001503  
    1074A      5.004460  1075A      5.009782  1076A      5.025606  
    1077A      5.030651  1078A      5.050351  1079A      5.050622  
    1080A      5.054162  1081A      5.055626  1082A      5.064689  
    1083A      5.066919  1084A      5.085103  1085A      5.094103  
    1086A      5.100231  1087A      5.103548  1088A      5.106751  
    1089A      5.115025  1090A      5.125641  1091A      5.129292  
    1092A      5.135371  1093A      5.139202  1094A      5.151362  
    1095A      5.152580  1096A      5.158867  1097A      5.164359  
    1098A      5.172758  1099A      5.189926  1100A      5.196045  
    1101A      5.196082  1102A      5.214238  1103A      5.229733  
    1104A      5.230339  1105A      5.232879  1106A      5.234144  
    1107A      5.238119  1108A      5.244636  1109A      5.248913  
    1110A      5.256296  1111A      5.261536  1112A      5.264712  
    1113A      5.270875  1114A      5.276423  1115A      5.282951  
    1116A      5.303449  1117A      5.307782  1118A      5.308204  
    1119A      5.313736  1120A      5.328625  1121A      5.330201  
    1122A      5.340119  1123A      5.349024  1124A      5.355936  
    1125A      5.357235  1126A      5.358680  1127A      5.365328  
    1128A      5.375700  1129A      5.383155  1130A      5.404265  
    1131A      5.408618  1132A      5.412138  1133A      5.420024  
    1134A      5.437119  1135A      5.446591  1136A      5.454497  
    1137A      5.468591  1138A      5.470597  1139A      5.484383  
    1140A      5.491997  1141A      5.500428  1142A      5.513955  
    1143A      5.515538  1144A      5.521021  1145A      5.523435  
    1146A      5.531904  1147A      5.535582  1148A      5.541316  
    1149A      5.547638  1150A      5.557674  1151A      5.572564  
    1152A      5.580345  1153A      5.602437  1154A      5.607314  
    1155A      5.609051  1156A      5.614187  1157A      5.620789  
    1158A      5.634023  1159A      5.638889  1160A      5.645052  
    1161A      5.649144  1162A      5.656072  1163A      5.658392  
    1164A      5.665728  1165A      5.665998  1166A      5.669940  
    1167A      5.676013  1168A      5.682339  1169A      5.682498  
    1170A      5.683146  1171A      5.685057  1172A      5.687724  
    1173A      5.688262  1174A      5.699211  1175A      5.700831  
    1176A      5.702586  1177A      5.719462  1178A      5.730267  
    1179A      5.740496  1180A      5.746778  1181A      5.752855  
    1182A      5.764459  1183A      5.768757  1184A      5.769177  
    1185A      5.771666  1186A      5.784399  1187A      5.797011  
    1188A      5.809543  1189A      5.814797  1190A      5.816410  
    1191A      5.842362  1192A      5.849299  1193A      5.861025  
    1194A      5.872480  1195A      5.873867  1196A      5.879600  
    1197A      5.884974  1198A      5.901389  1199A      5.951797  
    1200A      5.953506  1201A      5.991910  1202A      6.000672  
    1203A      6.006139  1204A      6.014186  1205A      6.014754  
    1206A      6.020247  1207A      6.023663  1208A      6.026129  
    1209A      6.029519  1210A      6.031647  1211A      6.040981  
    1212A      6.052803  1213A      6.064663  1214A      6.070306  
    1215A      6.072681  1216A      6.074292  1217A      6.079487  
    1218A      6.094599  1219A      6.099227  1220A      6.103385  
    1221A      6.113837  1222A      6.122490  1223A      6.125288  
    1224A      6.131788  1225A      6.134653  1226A      6.141712  
    1227A      6.143861  1228A      6.145419  1229A      6.152523  
    1230A      6.164375  1231A      6.173661  1232A      6.173808  
    1233A      6.187618  1234A      6.198983  1235A      6.199631  
    1236A      6.202092  1237A      6.216165  1238A      6.225127  
    1239A      6.236786  1240A      6.237805  1241A      6.261200  
    1242A      6.288941  1243A      6.296628  1244A      6.301185  
    1245A      6.309417  1246A      6.332018  1247A      6.350441  
    1248A      6.359026  1249A      6.397792  1250A      6.421898  
    1251A      6.460182  1252A      6.487217  1253A      6.493035  
    1254A      6.495841  1255A      6.566160  1256A      6.580232  
    1257A      6.581527  1258A      6.590214  1259A      6.626356  
    1260A      6.626980  1261A      6.633878  1262A      6.634690  
    1263A      6.635935  1264A      6.647271  1265A      6.657300  
    1266A      6.674428  1267A      6.678930  1268A      6.695763  
    1269A      6.708369  1270A      6.710481  1271A      6.712723  
    1272A      6.716810  1273A      6.719335  1274A      6.730067  
    1275A      6.730982  1276A      6.761438  1277A      6.762276  
    1278A      6.768217  1279A      6.782634  1280A      6.787791  
    1281A      6.795804  1282A      6.828528  1283A      6.834314  
    1284A      6.838705  1285A      6.845392  1286A      6.898124  
    1287A      6.900304  1288A      6.910786  1289A      6.919363  
    1290A      6.926576  1291A      6.928115  1292A      6.933885  
    1293A      6.941701  1294A      6.947256  1295A      6.953798  
    1296A      6.959228  1297A      6.974779  1298A      6.975264  
    1299A      6.985242  1300A      6.985938  1301A      7.002787  
    1302A      7.014536  1303A      7.021157  1304A      7.027486  
    1305A      7.033311  1306A      7.039761  1307A      7.047475  
    1308A      7.059678  1309A      7.082616  1310A      7.155418  
    1311A      7.193592  1312A      7.197228  1313A      7.227172  
    1314A      7.240510  1315A      7.242250  1316A      7.255062  
    1317A      7.259294  1318A      7.265598  1319A      7.277268  
    1320A      7.288097  1321A      7.297095  1322A      7.301853  
    1323A      7.341192  1324A      7.342091  1325A      7.343333  
    1326A      7.348424  1327A      7.351126  1328A      7.355532  
    1329A      7.357547  1330A      7.360684  1331A      7.368048  
    1332A      7.392576  1333A      7.394412  1334A      7.398768  
    1335A      7.409335  1336A      7.419948  1337A      7.471050  
    1338A      7.504784  1339A      7.509899  1340A      7.524870  
    1341A      7.530683  1342A      7.535748  1343A      7.537163  
    1344A      7.539745  1345A      7.545009  1346A      7.557338  
    1347A      7.562185  1348A      7.571713  1349A      7.588798  
    1350A      7.605018  1351A      7.629984  1352A      7.650564  
    1353A      7.692808  1354A      7.756384  1355A      7.782542  
    1356A      7.806757  1357A      7.850126  1358A      7.853104  
    1359A      7.887772  1360A      8.122934  1361A      8.151029  
    1362A      8.172019  1363A     10.011756  1364A     10.217302  
    1365A     10.238322  1366A     10.352072  1367A     10.560399  
    1368A     10.683539  1369A     10.700230  1370A     10.788114  
    1371A     12.139984  1372A     12.158726  1373A     12.176615  
    1374A     12.314463  1375A     12.645387  1376A     13.016297  
    1377A     13.107441  1378A     13.120645  1379A     13.147193  
    1380A     13.175576  1381A     13.438496  1382A     13.569446  
    1383A     13.584452  1384A     13.720355  1385A     13.732821  
    1386A     13.755911  1387A     13.834663  1388A     13.982230  
    1389A     14.064533  1390A     14.232300  1391A     14.301740  
    1392A     14.497524  1393A     14.701430  1394A     14.884973  

    Final Occupation by Irrep:
              A 
    DOCC [   125 ]

  Energy converged.

  @DF-RHF Final Energy: -1720.12492208074491

   => Energetics <=

    Nuclear Repulsion Energy =           2982.7484935527136258
    One-Electron Energy =               -8294.9388451543509291
    Two-Electron Energy =                3592.0654295208923941
    Total Energy =                      -1720.1249220807449092



Properties will be evaluated at   0.000000,   0.000000,   0.000000 Bohr

Properties computed using the SCF density matrix

  Nuclear Dipole Moment: (a.u.)
     X:   -12.8500      Y:     5.9243      Z:     4.6194

  Electronic Dipole Moment: (a.u.)
     X:    12.8626      Y:    -6.0030      Z:    -2.6352

  Dipole Moment: (a.u.)
     X:     0.0125      Y:    -0.0787      Z:     1.9842     Total:     1.9858

  Dipole Moment: (Debye)
     X:     0.0318      Y:    -0.2001      Z:     5.0433     Total:     5.0474


*** tstop() called on hex15 at Sun Mar  4 12:52:25 2018
Module time:
	user time   =    1135.47 seconds =      18.92 minutes
	system time =      13.36 seconds =       0.22 minutes
	total time  =        601 seconds =      10.02 minutes
Total time:
	user time   =    1135.47 seconds =      18.92 minutes
	system time =      13.36 seconds =       0.22 minutes
	total time  =        601 seconds =      10.02 minutes

*** Psi4 exiting successfully. Buy a developer a beer!
