
    -----------------------------------------------------------------------
          Psi4: An Open-Source Ab Initio Electronic Structure Package
                               Psi4 1.2a1.dev875 

                         Git: Rev {symm_JK} 0ea9481 dirty


    R. M. Parrish, L. A. Burns, D. G. A. Smith, A. C. Simmonett,
    A. E. DePrince III, E. G. Hohenstein, U. Bozkaya, A. Yu. Sokolov,
    R. Di Remigio, R. M. Richard, J. F. Gonthier, A. M. James,
    H. R. McAlexander, A. Kumar, M. Saitow, X. Wang, B. P. Pritchard,
    P. Verma, H. F. Schaefer III, K. Patkowski, R. A. King, E. F. Valeev,
    F. A. Evangelista, J. M. Turney, T. D. Crawford, and C. D. Sherrill,
    J. Chem. Theory Comput. 13(7) pp 3185--3197 (2017).
    (doi: 10.1021/acs.jctc.7b00174)

    -----------------------------------------------------------------------


    Psi4 started on: Monday, 05 March 2018 10:59PM

    Process ID:   3839
    PSIDATADIR: /theoryfs2/ds/schieber/Gits/mspsi4/objdir3/stage/usr/local/psi4/share/psi4
    Memory:     500.0 MiB
    Threads:    6
    
  ==> Input File <==

--------------------------------------------------------------------------
memory 60 Gb

molecule protein_15 {
0 1
 N   17.407  27.054  -1.437
 C   17.227  26.751  -0.026
 C   18.555  26.446   0.653
 O   19.003  25.309   0.692
 C   16.258  25.572   0.084
 C   15.759  25.336   1.493
 O   16.399  25.780   2.453
 O   14.731  24.675   1.645
 H   17.860  26.421  -2.023
 H   16.724  27.595   0.500
 H   16.724  24.663  -0.337
 H   15.363  25.845  -0.519
 H   16.737  25.171   3.109
 H   16.947  27.858  -1.864
 H   19.060  27.284   1.155
}

set {
basis cc-pvqz
scf_type df
guess sad
DF_SCF_TYPE DFJK
}

energy('HF')
--------------------------------------------------------------------------

  Memory set to  55.879 GiB by Python driver.

*** tstart() called on hex15
*** at Mon Mar  5 22:59:11 2018

   => Loading Basis Set <=

    Name: CC-PVQZ
    Role: ORBITAL
    Keyword: BASIS
    atoms 1        entry N          line   289 file /theoryfs2/ds/schieber/Gits/mspsi4/objdir3/stage/usr/local/psi4/share/psi4/basis/cc-pvqz.gbs 
    atoms 2-3, 5-6 entry C          line   239 file /theoryfs2/ds/schieber/Gits/mspsi4/objdir3/stage/usr/local/psi4/share/psi4/basis/cc-pvqz.gbs 
    atoms 4, 7-8   entry O          line   339 file /theoryfs2/ds/schieber/Gits/mspsi4/objdir3/stage/usr/local/psi4/share/psi4/basis/cc-pvqz.gbs 
    atoms 9-15     entry H          line    22 file /theoryfs2/ds/schieber/Gits/mspsi4/objdir3/stage/usr/local/psi4/share/psi4/basis/cc-pvqz.gbs 


         ---------------------------------------------------------
                                   SCF
            by Justin Turney, Rob Parrish, Andy Simmonett
                             and Daniel Smith
                              RHF Reference
                        6 Threads,  57220 MiB Core
         ---------------------------------------------------------

  ==> Geometry <==

    Molecular point group: c1
    Full point group: C1

    Geometry (in Angstrom), charge = 0, multiplicity = 1:

       Center              X                  Y                   Z               Mass       
    ------------   -----------------  -----------------  -----------------  -----------------
           N          0.493823883501     1.198273883779    -2.145822197285    14.003074004780
           C          0.313823883501     0.895273883779    -0.734822197285    12.000000000000
           C          1.641823883501     0.590273883779    -0.055822197285    12.000000000000
           O          2.089823883501    -0.546726116221    -0.016822197285    15.994914619560
           C         -0.655176116499    -0.283726116221    -0.624822197285    12.000000000000
           C         -1.154176116499    -0.519726116221     0.784177802715    12.000000000000
           O         -0.514176116499    -0.075726116221     1.744177802715    15.994914619560
           O         -2.182176116499    -1.180726116221     0.936177802715    15.994914619560
           H          0.946823883501     0.565273883779    -2.731822197285     1.007825032070
           H         -0.189176116499     1.739273883779    -0.208822197285     1.007825032070
           H         -0.189176116499    -1.192726116221    -1.045822197285     1.007825032070
           H         -1.550176116499    -0.010726116221    -1.227822197285     1.007825032070
           H         -0.176176116499    -0.684726116221     2.400177802715     1.007825032070
           H          0.033823883501     2.002273883779    -2.572822197285     1.007825032070
           H          2.146823883501     1.428273883779     0.446177802715     1.007825032070

  Running in c1 symmetry.

  Rotational constants: A =      0.10816  B =      0.04966  C =      0.03938 [cm^-1]
  Rotational constants: A =   3242.68280  B =   1488.90059  C =   1180.64051 [MHz]
  Nuclear repulsion =  383.662852131440786

  Charge       = 0
  Multiplicity = 1
  Electrons    = 62
  Nalpha       = 31
  Nbeta        = 31

  ==> Algorithm <==

  SCF Algorithm Type is DF.
  DIIS enabled.
  MOM disabled.
  Fractional occupation disabled.
  Guess Type is SAD.
  Energy threshold   = 1.00e-06
  Density threshold  = 1.00e-06
  Integral threshold = 0.00e+00

  ==> Primary Basis <==

  Basis Set: CC-PVQZ
    Blend: CC-PVQZ
    Number of shells: 190
    Number of basis function: 650
    Number of Cartesian functions: 805
    Spherical Harmonics?: true
    Max angular momentum: 4

   => Loading Basis Set <=

    Name: (CC-PVQZ AUX)
    Role: JKFIT
    Keyword: DF_BASIS_SCF
    atoms 1        entry N          line   195 file /theoryfs2/ds/schieber/Gits/mspsi4/objdir3/stage/usr/local/psi4/share/psi4/basis/cc-pvqz-jkfit.gbs 
    atoms 2-3, 5-6 entry C          line   137 file /theoryfs2/ds/schieber/Gits/mspsi4/objdir3/stage/usr/local/psi4/share/psi4/basis/cc-pvqz-jkfit.gbs 
    atoms 4, 7-8   entry O          line   253 file /theoryfs2/ds/schieber/Gits/mspsi4/objdir3/stage/usr/local/psi4/share/psi4/basis/cc-pvqz-jkfit.gbs 
    atoms 9-15     entry H          line    51 file /theoryfs2/ds/schieber/Gits/mspsi4/objdir3/stage/usr/local/psi4/share/psi4/basis/cc-pvqz-jkfit.gbs 

  ==> Pre-Iterations <==

   -------------------------------------------------------
    Irrep   Nso     Nmo     Nalpha   Nbeta   Ndocc  Nsocc
   -------------------------------------------------------
     A        650     650       0       0       0       0
   -------------------------------------------------------
    Total     650     650      31      31      31       0
   -------------------------------------------------------

  ==> Integral Setup <==

  ==> DFJK: Density-Fitted J/K Matrices <==

    J tasked:                  Yes
    K tasked:                  Yes
    wK tasked:                  No
    OpenMP threads:              6
    Integrals threads:           6
    Memory (MB):             42915
    Algorithm:                Core
    Integral Cache:           NONE
    Schwarz Cutoff:          1E-12
    Fitting Condition:       1E-12

   => Auxiliary Basis Set <=

  Basis Set: (CC-PVQZ AUX)
    Blend: CC-PVQZ-JKFIT
    Number of shells: 315
    Number of basis function: 1205
    Number of Cartesian functions: 1598
    Spherical Harmonics?: true
    Max angular momentum: 5

  Minimum eigenvalue in the overlap matrix is 6.3782065383E-05.
  Using Symmetric Orthogonalization.

  SCF Guess: Superposition of Atomic Densities via on-the-fly atomic UHF.

  ==> Iterations <==

                           Total Energy        Delta E     RMS |[F,P]|

   @DF-RHF iter   0:  -437.81830008197920   -4.37818e+02   2.05118e-02 
   @DF-RHF iter   1:  -434.45462058400869    3.36368e+00   2.67037e-03 
   @DF-RHF iter   2:  -434.63211795444721   -1.77497e-01   1.95627e-03 DIIS
   @DF-RHF iter   3:  -434.72769492959173   -9.55770e-02   3.96349e-04 DIIS
   @DF-RHF iter   4:  -434.73830967545359   -1.06147e-02   1.47228e-04 DIIS
   @DF-RHF iter   5:  -434.74033548766022   -2.02581e-03   7.23814e-05 DIIS
   @DF-RHF iter   6:  -434.74112393619441   -7.88449e-04   3.57605e-05 DIIS
   @DF-RHF iter   7:  -434.74137941018341   -2.55474e-04   1.48325e-05 DIIS
   @DF-RHF iter   8:  -434.74142612914028   -4.67190e-05   6.19895e-06 DIIS
   @DF-RHF iter   9:  -434.74143249480812   -6.36567e-06   3.04350e-06 DIIS
   @DF-RHF iter  10:  -434.74143366933060   -1.17452e-06   1.36222e-06 DIIS
   @DF-RHF iter  11:  -434.74143390715000   -2.37819e-07   4.38617e-07 DIIS

  ==> Post-Iterations <==

    Orbital Energies (a.u.)
    -----------------------

    Doubly Occupied:                                                      

       1A    -20.616960     2A    -20.569721     3A    -20.525476  
       4A    -15.553969     5A    -11.376529     6A    -11.345388  
       7A    -11.293847     8A    -11.244335     9A     -1.512671  
      10A     -1.399486    11A     -1.344114    12A     -1.205909  
      13A     -1.049698    14A     -0.942354    15A     -0.885361  
      16A     -0.798730    17A     -0.735676    18A     -0.708043  
      19A     -0.701350    20A     -0.668646    21A     -0.661647  
      22A     -0.635123    23A     -0.627922    24A     -0.567555  
      25A     -0.536354    26A     -0.526697    27A     -0.514044  
      28A     -0.466945    29A     -0.454259    30A     -0.443894  
      31A     -0.382344  

    Virtual:                                                              

      32A      0.093189    33A      0.105568    34A      0.121120  
      35A      0.132503    36A      0.145789    37A      0.156751  
      38A      0.162443    39A      0.186874    40A      0.205714  
      41A      0.237195    42A      0.261634    43A      0.286134  
      44A      0.300157    45A      0.315675    46A      0.324088  
      47A      0.335564    48A      0.357494    49A      0.359437  
      50A      0.367022    51A      0.394856    52A      0.405803  
      53A      0.414824    54A      0.423171    55A      0.447751  
      56A      0.452873    57A      0.462450    58A      0.471983  
      59A      0.480851    60A      0.497228    61A      0.503180  
      62A      0.508934    63A      0.526481    64A      0.541108  
      65A      0.544808    66A      0.552528    67A      0.561829  
      68A      0.582701    69A      0.589899    70A      0.602226  
      71A      0.622144    72A      0.633040    73A      0.649905  
      74A      0.655371    75A      0.681435    76A      0.688167  
      77A      0.708317    78A      0.716349    79A      0.726970  
      80A      0.742375    81A      0.747696    82A      0.749119  
      83A      0.778321    84A      0.792507    85A      0.811444  
      86A      0.828367    87A      0.846694    88A      0.868374  
      89A      0.896338    90A      0.901780    91A      0.911377  
      92A      0.929436    93A      0.940292    94A      0.943502  
      95A      0.963289    96A      0.972667    97A      0.981633  
      98A      0.989720    99A      1.003977   100A      1.022079  
     101A      1.037128   102A      1.043126   103A      1.047260  
     104A      1.063685   105A      1.085906   106A      1.089577  
     107A      1.104431   108A      1.109895   109A      1.121305  
     110A      1.138919   111A      1.145849   112A      1.155590  
     113A      1.170081   114A      1.181006   115A      1.196825  
     116A      1.213005   117A      1.235201   118A      1.244347  
     119A      1.249303   120A      1.279710   121A      1.283936  
     122A      1.302719   123A      1.315344   124A      1.327981  
     125A      1.357062   126A      1.363970   127A      1.392547  
     128A      1.397625   129A      1.439864   130A      1.447734  
     131A      1.472321   132A      1.503302   133A      1.521409  
     134A      1.532332   135A      1.568371   136A      1.587341  
     137A      1.603787   138A      1.606022   139A      1.653114  
     140A      1.660986   141A      1.668530   142A      1.698492  
     143A      1.722719   144A      1.733736   145A      1.750642  
     146A      1.772986   147A      1.777242   148A      1.788837  
     149A      1.805241   150A      1.821702   151A      1.825818  
     152A      1.856852   153A      1.878283   154A      1.886705  
     155A      1.910260   156A      1.925653   157A      1.947751  
     158A      1.965704   159A      1.976499   160A      1.989813  
     161A      2.018005   162A      2.023885   163A      2.037267  
     164A      2.047465   165A      2.071218   166A      2.076249  
     167A      2.093609   168A      2.111140   169A      2.131578  
     170A      2.146042   171A      2.156397   172A      2.166667  
     173A      2.175278   174A      2.192718   175A      2.202468  
     176A      2.221451   177A      2.238687   178A      2.255908  
     179A      2.274147   180A      2.279795   181A      2.305279  
     182A      2.325152   183A      2.328558   184A      2.347108  
     185A      2.359264   186A      2.371117   187A      2.373417  
     188A      2.384137   189A      2.412859   190A      2.417433  
     191A      2.431158   192A      2.442776   193A      2.460654  
     194A      2.471495   195A      2.480272   196A      2.496779  
     197A      2.512293   198A      2.529053   199A      2.547584  
     200A      2.562373   201A      2.567495   202A      2.578655  
     203A      2.584369   204A      2.601256   205A      2.612802  
     206A      2.626674   207A      2.630429   208A      2.654224  
     209A      2.682166   210A      2.692672   211A      2.717036  
     212A      2.734852   213A      2.741617   214A      2.745739  
     215A      2.756540   216A      2.762412   217A      2.790902  
     218A      2.800993   219A      2.837364   220A      2.847818  
     221A      2.852730   222A      2.856566   223A      2.878041  
     224A      2.903039   225A      2.915791   226A      2.927745  
     227A      2.940812   228A      2.959925   229A      2.987671  
     230A      3.010853   231A      3.023017   232A      3.045987  
     233A      3.049543   234A      3.081402   235A      3.095569  
     236A      3.107066   237A      3.121902   238A      3.135678  
     239A      3.160853   240A      3.184709   241A      3.196463  
     242A      3.208859   243A      3.216165   244A      3.244366  
     245A      3.265559   246A      3.292656   247A      3.310930  
     248A      3.321360   249A      3.333020   250A      3.351702  
     251A      3.377459   252A      3.382278   253A      3.384811  
     254A      3.424655   255A      3.431359   256A      3.453014  
     257A      3.457016   258A      3.475251   259A      3.492574  
     260A      3.532222   261A      3.539126   262A      3.564316  
     263A      3.582255   264A      3.593405   265A      3.602581  
     266A      3.624621   267A      3.649135   268A      3.664753  
     269A      3.667977   270A      3.685790   271A      3.729620  
     272A      3.746853   273A      3.764172   274A      3.783746  
     275A      3.797447   276A      3.808971   277A      3.823588  
     278A      3.842467   279A      3.857169   280A      3.858041  
     281A      3.873867   282A      3.897722   283A      3.930716  
     284A      3.965309   285A      3.987932   286A      4.023065  
     287A      4.050288   288A      4.063790   289A      4.078022  
     290A      4.104146   291A      4.119012   292A      4.138801  
     293A      4.152499   294A      4.183047   295A      4.197668  
     296A      4.229015   297A      4.243974   298A      4.275181  
     299A      4.300498   300A      4.332927   301A      4.350694  
     302A      4.381578   303A      4.392757   304A      4.405334  
     305A      4.414671   306A      4.425893   307A      4.443438  
     308A      4.457427   309A      4.481451   310A      4.517236  
     311A      4.535712   312A      4.568810   313A      4.573131  
     314A      4.593377   315A      4.603001   316A      4.624392  
     317A      4.666827   318A      4.713988   319A      4.719832  
     320A      4.751716   321A      4.762372   322A      4.790353  
     323A      4.818407   324A      4.838130   325A      4.855934  
     326A      4.875819   327A      4.939146   328A      4.973009  
     329A      5.002075   330A      5.053049   331A      5.076797  
     332A      5.121905   333A      5.129753   334A      5.246514  
     335A      5.302218   336A      5.350991   337A      5.366477  
     338A      5.410081   339A      5.436462   340A      5.447087  
     341A      5.559544   342A      5.572516   343A      5.595866  
     344A      5.662393   345A      5.673845   346A      5.726269  
     347A      5.747157   348A      5.810356   349A      5.830686  
     350A      5.846002   351A      5.870543   352A      5.885355  
     353A      5.918829   354A      5.928998   355A      5.957870  
     356A      5.972321   357A      5.988597   358A      5.999797  
     359A      6.021309   360A      6.038082   361A      6.056771  
     362A      6.066374   363A      6.082051   364A      6.107294  
     365A      6.134101   366A      6.141322   367A      6.169764  
     368A      6.180995   369A      6.207621   370A      6.210336  
     371A      6.225815   372A      6.251786   373A      6.280057  
     374A      6.290449   375A      6.298335   376A      6.325757  
     377A      6.349442   378A      6.370186   379A      6.377159  
     380A      6.385014   381A      6.402751   382A      6.420166  
     383A      6.436254   384A      6.440022   385A      6.458862  
     386A      6.488839   387A      6.506594   388A      6.525376  
     389A      6.557507   390A      6.564949   391A      6.599429  
     392A      6.608110   393A      6.615625   394A      6.622775  
     395A      6.646703   396A      6.651249   397A      6.659710  
     398A      6.712173   399A      6.720185   400A      6.739262  
     401A      6.773038   402A      6.789067   403A      6.798687  
     404A      6.832791   405A      6.846196   406A      6.875292  
     407A      6.895761   408A      6.921115   409A      6.955858  
     410A      6.974205   411A      6.984888   412A      7.004219  
     413A      7.035357   414A      7.047914   415A      7.082782  
     416A      7.100643   417A      7.120474   418A      7.129824  
     419A      7.162052   420A      7.192472   421A      7.215241  
     422A      7.226661   423A      7.235902   424A      7.255910  
     425A      7.298990   426A      7.333660   427A      7.345381  
     428A      7.363841   429A      7.387027   430A      7.403089  
     431A      7.422492   432A      7.448337   433A      7.468160  
     434A      7.511357   435A      7.525517   436A      7.534000  
     437A      7.559409   438A      7.587955   439A      7.616854  
     440A      7.619574   441A      7.628581   442A      7.660809  
     443A      7.673419   444A      7.691396   445A      7.696526  
     446A      7.746208   447A      7.752626   448A      7.789543  
     449A      7.809589   450A      7.825358   451A      7.845006  
     452A      7.854735   453A      7.873974   454A      7.889661  
     455A      7.910159   456A      7.920909   457A      7.931645  
     458A      7.937745   459A      7.984398   460A      8.003701  
     461A      8.040776   462A      8.048774   463A      8.076174  
     464A      8.092528   465A      8.101392   466A      8.136229  
     467A      8.162156   468A      8.195644   469A      8.203974  
     470A      8.207480   471A      8.214852   472A      8.235038  
     473A      8.252066   474A      8.269191   475A      8.274804  
     476A      8.295204   477A      8.330998   478A      8.336236  
     479A      8.360297   480A      8.393447   481A      8.397026  
     482A      8.400445   483A      8.413049   484A      8.420928  
     485A      8.447152   486A      8.470364   487A      8.483136  
     488A      8.512896   489A      8.535725   490A      8.544351  
     491A      8.557569   492A      8.571011   493A      8.616723  
     494A      8.635307   495A      8.674235   496A      8.691725  
     497A      8.715290   498A      8.731168   499A      8.744938  
     500A      8.774606   501A      8.785754   502A      8.839543  
     503A      8.872798   504A      8.885989   505A      8.894558  
     506A      8.927165   507A      8.946705   508A      8.960535  
     509A      9.012731   510A      9.025454   511A      9.047742  
     512A      9.075228   513A      9.122137   514A      9.134888  
     515A      9.149902   516A      9.168288   517A      9.181907  
     518A      9.194607   519A      9.205734   520A      9.254602  
     521A      9.265426   522A      9.281572   523A      9.313347  
     524A      9.337165   525A      9.338132   526A      9.360129  
     527A      9.367146   528A      9.375983   529A      9.392663  
     530A      9.410108   531A      9.413157   532A      9.439058  
     533A      9.445909   534A      9.462959   535A      9.498040  
     536A      9.519309   537A      9.571763   538A      9.604642  
     539A      9.623667   540A      9.640718   541A      9.680312  
     542A      9.710556   543A      9.777243   544A      9.783140  
     545A      9.833779   546A      9.846159   547A      9.915453  
     548A      9.975945   549A     10.068902   550A     10.097754  
     551A     10.116317   552A     10.183998   553A     10.213384  
     554A     10.230376   555A     10.266555   556A     10.275504  
     557A     10.292462   558A     10.322997   559A     10.363416  
     560A     10.396981   561A     10.435891   562A     10.452622  
     563A     10.502035   564A     10.511793   565A     10.547490  
     566A     10.571742   567A     10.613529   568A     10.624817  
     569A     10.674217   570A     10.722389   571A     10.737726  
     572A     10.807946   573A     10.837082   574A     10.844902  
     575A     10.906387   576A     10.931815   577A     11.004856  
     578A     11.027520   579A     11.054167   580A     11.078611  
     581A     11.128560   582A     11.144309   583A     11.192593  
     584A     11.270123   585A     11.369068   586A     11.450706  
     587A     11.518799   588A     11.525441   589A     11.602502  
     590A     11.615114   591A     11.636596   592A     11.651464  
     593A     11.659739   594A     11.681403   595A     11.685798  
     596A     11.782576   597A     11.853293   598A     11.978005  
     599A     12.003647   600A     12.036268   601A     12.056037  
     602A     12.078209   603A     12.151680   604A     12.169524  
     605A     12.202418   606A     12.269105   607A     12.293564  
     608A     12.342008   609A     12.390057   610A     12.419798  
     611A     12.428683   612A     12.490092   613A     12.523947  
     614A     12.589185   615A     12.681199   616A     12.718617  
     617A     12.725478   618A     12.735060   619A     12.786040  
     620A     12.810178   621A     12.826316   622A     12.845984  
     623A     12.875369   624A     12.903198   625A     12.967042  
     626A     13.196949   627A     13.374519   628A     13.399300  
     629A     13.758837   630A     13.795931   631A     13.842564  
     632A     13.911565   633A     14.150546   634A     14.184647  
     635A     14.268606   636A     14.430350   637A     14.513626  
     638A     14.549966   639A     14.642302   640A     14.918476  
     641A     15.002079   642A     16.797978   643A     25.241814  
     644A     25.309375   645A     26.115964   646A     26.683733  
     647A     34.886933   648A     42.990185   649A     43.112946  
     650A     44.689367  

    Final Occupation by Irrep:
              A 
    DOCC [    31 ]

  Energy converged.

  @DF-RHF Final Energy:  -434.74143390715000

   => Energetics <=

    Nuclear Repulsion Energy =            383.6628521314407863
    One-Electron Energy =               -1356.2185881848588451
    Two-Electron Energy =                 537.8143021462681190
    Total Energy =                       -434.7414339071499398



Properties will be evaluated at   0.000000,   0.000000,   0.000000 Bohr

Properties computed using the SCF density matrix

  Nuclear Dipole Moment: (a.u.)
     X:     0.9545      Y:     3.5942      Z:    -4.6128

  Electronic Dipole Moment: (a.u.)
     X:    -0.2893      Y:    -2.3070      Z:     4.3246

  Dipole Moment: (a.u.)
     X:     0.6652      Y:     1.2872      Z:    -0.2882     Total:     1.4773

  Dipole Moment: (Debye)
     X:     1.6907      Y:     3.2717      Z:    -0.7326     Total:     3.7549


*** tstop() called on hex15 at Mon Mar  5 22:59:54 2018
Module time:
	user time   =     161.06 seconds =       2.68 minutes
	system time =       1.83 seconds =       0.03 minutes
	total time  =         43 seconds =       0.72 minutes
Total time:
	user time   =     161.06 seconds =       2.68 minutes
	system time =       1.83 seconds =       0.03 minutes
	total time  =         43 seconds =       0.72 minutes

*** Psi4 exiting successfully. Buy a developer a beer!
