
    -----------------------------------------------------------------------
          Psi4: An Open-Source Ab Initio Electronic Structure Package
                               Psi4 1.2a1.dev875 

                         Git: Rev {symm_JK} 0ea9481 dirty


    R. M. Parrish, L. A. Burns, D. G. A. Smith, A. C. Simmonett,
    A. E. DePrince III, E. G. Hohenstein, U. Bozkaya, A. Yu. Sokolov,
    R. Di Remigio, R. M. Richard, J. F. Gonthier, A. M. James,
    H. R. McAlexander, A. Kumar, M. Saitow, X. Wang, B. P. Pritchard,
    P. Verma, H. F. Schaefer III, K. Patkowski, R. A. King, E. F. Valeev,
    F. A. Evangelista, J. M. Turney, T. D. Crawford, and C. D. Sherrill,
    J. Chem. Theory Comput. 13(7) pp 3185--3197 (2017).
    (doi: 10.1021/acs.jctc.7b00174)

    -----------------------------------------------------------------------


    Psi4 started on: Sunday, 04 March 2018 01:45PM

    Process ID:  13871
    PSIDATADIR: /theoryfs2/ds/schieber/Gits/mspsi4/objdir3/stage/usr/local/psi4/share/psi4
    Memory:     500.0 MiB
    Threads:    6
    
  ==> Input File <==

--------------------------------------------------------------------------
memory 60 Gb

molecule protein_103 {
0 1
 N   18.626  30.444   6.627
 C   17.853  29.516   5.837
 C   16.945  30.292   4.886
 O   15.843  30.678   5.237
 C   17.047  28.642   6.811
 C   16.316  27.513   6.146
 O   16.236  27.458   4.905
 O   15.762  26.696   6.882
 N    4.567  24.042   8.795
 C    4.886  22.777   8.145
 C    6.265  22.720   7.521
 O    6.723  23.689   6.900
 N   17.407  27.054  -1.437
 C   17.227  26.751  -0.026
 C   18.555  26.446   0.653
 O   19.003  25.309   0.692
 C   16.258  25.572   0.084
 C   15.759  25.336   1.493
 O   16.399  25.780   2.453
 O   14.731  24.675   1.645
 N   19.106  26.199   3.688
 C   18.957  25.372   4.876
 C   18.845  23.903   4.520
 O   18.660  23.054   5.417
 N   20.536  20.559   2.918
 C   21.779  19.912   2.496
 C   21.693  19.374   1.107
 O   22.642  19.502   0.361
 C   22.169  18.827   3.447
 C   22.272  19.337   4.844
 O   22.714  20.482   5.029
 O   21.836  18.647   5.778
 N   20.524  18.868   0.719
 C   20.355  18.227  -0.584
 C   19.212  18.807  -1.371
 O   18.383  19.523  -0.846
 C   20.084  16.745  -0.413
 C   21.023  16.088   0.586
 O   22.233  15.970   0.265
 O   20.531  15.682   1.672
 N   15.750  18.102  -3.440
 C   14.628  17.162  -3.514
 C   13.618  17.726  -4.436
 O   13.169  18.861  -4.263
 C   13.781  17.005  -2.245
 C   13.297  15.592  -2.184
 C   14.518  17.455  -1.007
 N   13.583  16.896   8.239
 C   13.484  18.319   8.459
 C   12.647  18.565   9.672
 O   12.880  17.976  10.721
 H   18.180  30.990   7.295
 H   18.510  28.835   5.249
 H   16.336  29.276   7.377
 H   17.778  28.186   7.516
 H   15.845  26.702   7.843
 H    4.436  24.871   8.195
 H    4.744  21.930   8.802
 H    4.143  22.632   7.335
 H   17.860  26.421  -2.023
 H   16.724  27.595   0.500
 H   16.724  24.663  -0.337
 H   15.363  25.845  -0.519
 H   16.737  25.171   3.109
 H   18.314  26.771   3.377
 H   18.015  25.631   5.391
 H   19.792  25.567   5.577
 H   19.976  20.073   3.597
 H   22.602  20.664   2.537
 H   23.175  18.459   3.144
 H   21.465  17.966   3.392
 H   21.492  17.752   5.634
 H   19.735  18.818   1.381
 H   21.291  18.340  -1.170
 H   20.109  16.188  -1.374
 H   19.050  16.648  -0.012
 H   19.629  15.364   1.734
 H   15.541  19.065  -3.172
 H   15.011  16.180  -3.836
 H   12.886  17.674  -2.203
 H   14.115  14.872  -2.046
 H   12.706  15.323  -3.086
 H   12.624  15.478  -1.307
 H   15.405  16.799  -0.936
 H   13.886  17.316  -0.103
 H   14.813  18.522  -1.068
 H   12.728  16.393   8.153
 H   13.053  18.790   7.555
 H   14.480  18.781   8.624
 H   19.646  30.419   6.619
 H   17.295  30.415   3.850
 H    4.454  24.117   9.806
 H    6.887  21.864   7.822
 H   16.947  27.858  -1.864
 H   19.060  27.284   1.155
 H   20.034  26.347   3.290
 H   18.824  23.654   3.449
 H   20.197  21.395   2.443
 H   19.162  18.493  -2.424
 H   16.715  17.829  -3.624
 H   13.269  17.060  -5.239
 H   14.494  16.447   8.142
 H   11.982  19.438   9.599
}

set {
basis cc-pvtz
scf_type df
guess sad
DF_SCF_TYPE DFJK
}

energy('HF')
--------------------------------------------------------------------------

  Memory set to  55.879 GiB by Python driver.

*** tstart() called on hex15
*** at Sun Mar  4 13:45:58 2018

   => Loading Basis Set <=

    Name: CC-PVTZ
    Role: ORBITAL
    Keyword: BASIS
    atoms 1, 9, 13, 21, 25, 33, 41, 48                                                          entry N          line   224 file /theoryfs2/ds/schieber/Gits/mspsi4/objdir3/stage/usr/local/psi4/share/psi4/basis/cc-pvtz.gbs 
    atoms 2-3, 5-6, 10-11, 14-15, 17-18, 22-23, 26-27, 29-30, 34-35, 37-38, 42-43, 45-47, 49-50 entry C          line   186 file /theoryfs2/ds/schieber/Gits/mspsi4/objdir3/stage/usr/local/psi4/share/psi4/basis/cc-pvtz.gbs 
    atoms 4, 7-8, 12, 16, 19-20, 24, 28, 31-32, 36, 39-40, 44, 51                               entry O          line   262 file /theoryfs2/ds/schieber/Gits/mspsi4/objdir3/stage/usr/local/psi4/share/psi4/basis/cc-pvtz.gbs 
    atoms 52-103                                                                                entry H          line    23 file /theoryfs2/ds/schieber/Gits/mspsi4/objdir3/stage/usr/local/psi4/share/psi4/basis/cc-pvtz.gbs 


         ---------------------------------------------------------
                                   SCF
            by Justin Turney, Rob Parrish, Andy Simmonett
                             and Daniel Smith
                              RHF Reference
                        6 Threads,  57220 MiB Core
         ---------------------------------------------------------

  ==> Geometry <==

    Molecular point group: c1
    Full point group: C1

    Geometry (in Angstrom), charge = 0, multiplicity = 1:

       Center              X                  Y                   Z               Mass       
    ------------   -----------------  -----------------  -----------------  -----------------
           N          1.834525169641     8.467048519537     3.745546000143    14.003074004780
           C          1.061525169641     7.539048519537     2.955546000143    12.000000000000
           C          0.153525169641     8.315048519537     2.004546000143    12.000000000000
           O         -0.948474830359     8.701048519537     2.355546000143    15.994914619560
           C          0.255525169641     6.665048519537     3.929546000143    12.000000000000
           C         -0.475474830359     5.536048519537     3.264546000143    12.000000000000
           O         -0.555474830359     5.481048519537     2.023546000143    15.994914619560
           O         -1.029474830359     4.719048519537     4.000546000143    15.994914619560
           N        -12.224474830359     2.065048519537     5.913546000143    14.003074004780
           C        -11.905474830359     0.800048519537     5.263546000143    12.000000000000
           C        -10.526474830359     0.743048519537     4.639546000143    12.000000000000
           O        -10.068474830359     1.712048519537     4.018546000143    15.994914619560
           N          0.615525169641     5.077048519537    -4.318453999857    14.003074004780
           C          0.435525169641     4.774048519537    -2.907453999857    12.000000000000
           C          1.763525169641     4.469048519537    -2.228453999857    12.000000000000
           O          2.211525169641     3.332048519537    -2.189453999857    15.994914619560
           C         -0.533474830359     3.595048519537    -2.797453999857    12.000000000000
           C         -1.032474830359     3.359048519537    -1.388453999857    12.000000000000
           O         -0.392474830359     3.803048519537    -0.428453999857    15.994914619560
           O         -2.060474830359     2.698048519537    -1.236453999857    15.994914619560
           N          2.314525169641     4.222048519537     0.806546000143    14.003074004780
           C          2.165525169641     3.395048519537     1.994546000143    12.000000000000
           C          2.053525169641     1.926048519537     1.638546000143    12.000000000000
           O          1.868525169641     1.077048519537     2.535546000143    15.994914619560
           N          3.744525169641    -1.417951480463     0.036546000143    14.003074004780
           C          4.987525169641    -2.064951480463    -0.385453999857    12.000000000000
           C          4.901525169641    -2.602951480463    -1.774453999857    12.000000000000
           O          5.850525169641    -2.474951480463    -2.520453999857    15.994914619560
           C          5.377525169641    -3.149951480463     0.565546000143    12.000000000000
           C          5.480525169641    -2.639951480463     1.962546000143    12.000000000000
           O          5.922525169641    -1.494951480463     2.147546000143    15.994914619560
           O          5.044525169641    -3.329951480463     2.896546000143    15.994914619560
           N          3.732525169641    -3.108951480463    -2.162453999857    14.003074004780
           C          3.563525169641    -3.749951480463    -3.465453999857    12.000000000000
           C          2.420525169641    -3.169951480463    -4.252453999857    12.000000000000
           O          1.591525169641    -2.453951480463    -3.727453999857    15.994914619560
           C          3.292525169641    -5.231951480463    -3.294453999857    12.000000000000
           C          4.231525169641    -5.888951480463    -2.295453999857    12.000000000000
           O          5.441525169641    -6.006951480463    -2.616453999857    15.994914619560
           O          3.739525169641    -6.294951480463    -1.209453999857    15.994914619560
           N         -1.041474830359    -3.874951480463    -6.321453999857    14.003074004780
           C         -2.163474830359    -4.814951480463    -6.395453999857    12.000000000000
           C         -3.173474830359    -4.250951480463    -7.317453999857    12.000000000000
           O         -3.622474830359    -3.115951480463    -7.144453999857    15.994914619560
           C         -3.010474830359    -4.971951480463    -5.126453999857    12.000000000000
           C         -3.494474830359    -6.384951480463    -5.065453999857    12.000000000000
           C         -2.273474830359    -4.521951480463    -3.888453999857    12.000000000000
           N         -3.208474830359    -5.080951480463     5.357546000143    14.003074004780
           C         -3.307474830359    -3.657951480463     5.577546000143    12.000000000000
           C         -4.144474830359    -3.411951480463     6.790546000143    12.000000000000
           O         -3.911474830359    -4.000951480463     7.839546000143    15.994914619560
           H          1.388525169641     9.013048519537     4.413546000143     1.007825032070
           H          1.718525169641     6.858048519537     2.367546000143     1.007825032070
           H         -0.455474830359     7.299048519537     4.495546000143     1.007825032070
           H          0.986525169641     6.209048519537     4.634546000143     1.007825032070
           H         -0.946474830359     4.725048519537     4.961546000143     1.007825032070
           H        -12.355474830359     2.894048519537     5.313546000143     1.007825032070
           H        -12.047474830359    -0.046951480463     5.920546000143     1.007825032070
           H        -12.648474830359     0.655048519537     4.453546000143     1.007825032070
           H          1.068525169641     4.444048519537    -4.904453999857     1.007825032070
           H         -0.067474830359     5.618048519537    -2.381453999857     1.007825032070
           H         -0.067474830359     2.686048519537    -3.218453999857     1.007825032070
           H         -1.428474830359     3.868048519537    -3.400453999857     1.007825032070
           H         -0.054474830359     3.194048519537     0.227546000143     1.007825032070
           H          1.522525169641     4.794048519537     0.495546000143     1.007825032070
           H          1.223525169641     3.654048519537     2.509546000143     1.007825032070
           H          3.000525169641     3.590048519537     2.695546000143     1.007825032070
           H          3.184525169641    -1.903951480463     0.715546000143     1.007825032070
           H          5.810525169641    -1.312951480463    -0.344453999857     1.007825032070
           H          6.383525169641    -3.517951480463     0.262546000143     1.007825032070
           H          4.673525169641    -4.010951480463     0.510546000143     1.007825032070
           H          4.700525169641    -4.224951480463     2.752546000143     1.007825032070
           H          2.943525169641    -3.158951480463    -1.500453999857     1.007825032070
           H          4.499525169641    -3.636951480463    -4.051453999857     1.007825032070
           H          3.317525169641    -5.788951480463    -4.255453999857     1.007825032070
           H          2.258525169641    -5.328951480463    -2.893453999857     1.007825032070
           H          2.837525169641    -6.612951480463    -1.147453999857     1.007825032070
           H         -1.250474830359    -2.911951480463    -6.053453999857     1.007825032070
           H         -1.780474830359    -5.796951480463    -6.717453999857     1.007825032070
           H         -3.905474830359    -4.302951480463    -5.084453999857     1.007825032070
           H         -2.676474830359    -7.104951480463    -4.927453999857     1.007825032070
           H         -4.085474830359    -6.653951480463    -5.967453999857     1.007825032070
           H         -4.167474830359    -6.498951480463    -4.188453999857     1.007825032070
           H         -1.386474830359    -5.177951480463    -3.817453999857     1.007825032070
           H         -2.905474830359    -4.660951480463    -2.984453999857     1.007825032070
           H         -1.978474830359    -3.454951480463    -3.949453999857     1.007825032070
           H         -4.063474830359    -5.583951480463     5.271546000143     1.007825032070
           H         -3.738474830359    -3.186951480463     4.673546000143     1.007825032070
           H         -2.311474830359    -3.195951480463     5.742546000143     1.007825032070
           H          2.854525169641     8.442048519537     3.737546000143     1.007825032070
           H          0.503525169641     8.438048519537     0.968546000143     1.007825032070
           H        -12.337474830359     2.140048519537     6.924546000143     1.007825032070
           H         -9.904474830359    -0.112951480463     4.940546000143     1.007825032070
           H          0.155525169641     5.881048519537    -4.745453999857     1.007825032070
           H          2.268525169641     5.307048519537    -1.726453999857     1.007825032070
           H          3.242525169641     4.370048519537     0.408546000143     1.007825032070
           H          2.032525169641     1.677048519537     0.567546000143     1.007825032070
           H          3.405525169641    -0.581951480463    -0.438453999857     1.007825032070
           H          2.370525169641    -3.483951480463    -5.305453999857     1.007825032070
           H         -0.076474830359    -4.147951480463    -6.505453999857     1.007825032070
           H         -3.522474830359    -4.916951480463    -8.120453999857     1.007825032070
           H         -2.297474830359    -5.529951480463     5.260546000143     1.007825032070
           H         -4.809474830359    -2.538951480463     6.717546000143     1.007825032070

  Running in c1 symmetry.

  Rotational constants: A =      0.00083  B =      0.00061  C =      0.00051 [cm^-1]
  Rotational constants: A =     24.83034  B =     18.39626  C =     15.29315 [MHz]
  Nuclear repulsion = 6201.543659593415214

  Charge       = 0
  Multiplicity = 1
  Electrons    = 398
  Nalpha       = 199
  Nbeta        = 199

  ==> Algorithm <==

  SCF Algorithm Type is DF.
  DIIS enabled.
  MOM disabled.
  Fractional occupation disabled.
  Guess Type is SAD.
  Energy threshold   = 1.00e-06
  Density threshold  = 1.00e-06
  Integral threshold = 0.00e+00

  ==> Primary Basis <==

  Basis Set: CC-PVTZ
    Blend: CC-PVTZ
    Number of shells: 822
    Number of basis function: 2258
    Number of Cartesian functions: 2565
    Spherical Harmonics?: true
    Max angular momentum: 3

   => Loading Basis Set <=

    Name: (CC-PVTZ AUX)
    Role: JKFIT
    Keyword: DF_BASIS_SCF
    atoms 1, 9, 13, 21, 25, 33, 41, 48                                                          entry N          line   177 file /theoryfs2/ds/schieber/Gits/mspsi4/objdir3/stage/usr/local/psi4/share/psi4/basis/cc-pvtz-jkfit.gbs 
    atoms 2-3, 5-6, 10-11, 14-15, 17-18, 22-23, 26-27, 29-30, 34-35, 37-38, 42-43, 45-47, 49-50 entry C          line   125 file /theoryfs2/ds/schieber/Gits/mspsi4/objdir3/stage/usr/local/psi4/share/psi4/basis/cc-pvtz-jkfit.gbs 
    atoms 4, 7-8, 12, 16, 19-20, 24, 28, 31-32, 36, 39-40, 44, 51                               entry O          line   229 file /theoryfs2/ds/schieber/Gits/mspsi4/objdir3/stage/usr/local/psi4/share/psi4/basis/cc-pvtz-jkfit.gbs 
    atoms 52-103                                                                                entry H          line    51 file /theoryfs2/ds/schieber/Gits/mspsi4/objdir3/stage/usr/local/psi4/share/psi4/basis/cc-pvtz-jkfit.gbs 

  ==> Pre-Iterations <==

   -------------------------------------------------------
    Irrep   Nso     Nmo     Nalpha   Nbeta   Ndocc  Nsocc
   -------------------------------------------------------
     A       2258    2258       0       0       0       0
   -------------------------------------------------------
    Total    2258    2258     199     199     199       0
   -------------------------------------------------------

  ==> Integral Setup <==

  ==> DFJK: Density-Fitted J/K Matrices <==

    J tasked:                  Yes
    K tasked:                  Yes
    wK tasked:                  No
    OpenMP threads:              6
    Integrals threads:           6
    Memory (MB):             42915
    Algorithm:                Core
    Integral Cache:           NONE
    Schwarz Cutoff:          1E-12
    Fitting Condition:       1E-12

   => Auxiliary Basis Set <=

  Basis Set: (CC-PVTZ AUX)
    Blend: CC-PVTZ-JKFIT
    Number of shells: 1795
    Number of basis function: 5589
    Number of Cartesian functions: 6716
    Spherical Harmonics?: true
    Max angular momentum: 4

  Minimum eigenvalue in the overlap matrix is 1.6715701603E-04.
  Using Symmetric Orthogonalization.

  SCF Guess: Superposition of Atomic Densities via on-the-fly atomic UHF.

  ==> Iterations <==

                           Total Energy        Delta E     RMS |[F,P]|

   @DF-RHF iter   0: -2704.28519620171028   -2.70429e+03   1.43126e-02 
   @DF-RHF iter   1: -2684.96940109570141    1.93158e+01   1.90971e-03 
   @DF-RHF iter   2: -2686.18285093796749   -1.21345e+00   1.32569e-03 DIIS
   @DF-RHF iter   3: -2686.74621559315483   -5.63365e-01   3.00159e-04 DIIS
   @DF-RHF iter   4: -2686.80924900096443   -6.30334e-02   1.07208e-04 DIIS
   @DF-RHF iter   5: -2686.81912755130770   -9.87855e-03   4.27907e-05 DIIS
   @DF-RHF iter   6: -2686.82177464026699   -2.64709e-03   2.05588e-05 DIIS
   @DF-RHF iter   7: -2686.82246984635776   -6.95206e-04   9.20678e-06 DIIS
   @DF-RHF iter   8: -2686.82260401885333   -1.34172e-04   4.24171e-06 DIIS
   @DF-RHF iter   9: -2686.82263599834187   -3.19795e-05   1.92527e-06 DIIS
   @DF-RHF iter  10: -2686.82264402354303   -8.02520e-06   8.92194e-07 DIIS
   @DF-RHF iter  11: -2686.82264596493269   -1.94139e-06   3.71020e-07 DIIS
   @DF-RHF iter  12: -2686.82264626233882   -2.97406e-07   1.67149e-07 DIIS

  ==> Post-Iterations <==

    Orbital Energies (a.u.)
    -----------------------

    Doubly Occupied:                                                      

       1A    -20.652358     2A    -20.642084     3A    -20.631357  
       4A    -20.598884     5A    -20.581501     6A    -20.563075  
       7A    -20.556750     8A    -20.555058     9A    -20.555002  
      10A    -20.554305    11A    -20.548843    12A    -20.548575  
      13A    -20.536301    14A    -20.513408    15A    -20.509522  
      16A    -20.509454    17A    -15.596335    18A    -15.553066  
      19A    -15.544959    20A    -15.544825    21A    -15.540211  
      22A    -15.539419    23A    -15.538876    24A    -15.534048  
      25A    -11.409874    26A    -11.393418    27A    -11.376437  
      28A    -11.360682    29A    -11.355486    30A    -11.339528  
      31A    -11.337431    32A    -11.334045    33A    -11.332932  
      34A    -11.330546    35A    -11.328437    36A    -11.327850  
      37A    -11.308428    38A    -11.293406    39A    -11.285541  
      40A    -11.284939    41A    -11.278598    42A    -11.275214  
      43A    -11.273004    44A    -11.272687    45A    -11.271410  
      46A    -11.261852    47A    -11.257714    48A    -11.233240  
      49A    -11.229780    50A    -11.228647    51A    -11.217449  
      52A     -1.525269    53A     -1.521645    54A     -1.507948  
      55A     -1.494617    56A     -1.414668    57A     -1.392308  
      58A     -1.388298    59A     -1.386732    60A     -1.379635  
      61A     -1.375853    62A     -1.369391    63A     -1.365050  
      64A     -1.354119    65A     -1.353786    66A     -1.333894  
      67A     -1.327344    68A     -1.252143    69A     -1.209985  
      70A     -1.196574    71A     -1.188717    72A     -1.185054  
      73A     -1.181652    74A     -1.178154    75A     -1.166523  
      76A     -1.096556    77A     -1.084110    78A     -1.052507  
      79A     -1.049686    80A     -1.038231    81A     -0.976036  
      82A     -0.967782    83A     -0.966908    84A     -0.965872  
      85A     -0.961541    86A     -0.946782    87A     -0.934508  
      88A     -0.932217    89A     -0.926708    90A     -0.908198  
      91A     -0.903691    92A     -0.884218    93A     -0.870301  
      94A     -0.828927    95A     -0.810546    96A     -0.806927  
      97A     -0.799499    98A     -0.797024    99A     -0.793692  
     100A     -0.793353   101A     -0.790489   102A     -0.764671  
     103A     -0.750113   104A     -0.744267   105A     -0.731051  
     106A     -0.726574   107A     -0.715392   108A     -0.715295  
     109A     -0.711817   110A     -0.706464   111A     -0.701893  
     112A     -0.697121   113A     -0.696901   114A     -0.696048  
     115A     -0.693364   116A     -0.690980   117A     -0.688804  
     118A     -0.684501   119A     -0.681829   120A     -0.680958  
     121A     -0.677334   122A     -0.664644   123A     -0.662681  
     124A     -0.660276   125A     -0.657024   126A     -0.655236  
     127A     -0.653560   128A     -0.653450   129A     -0.648731  
     130A     -0.647453   131A     -0.639558   132A     -0.638858  
     133A     -0.636041   134A     -0.628415   135A     -0.627765  
     136A     -0.627434   137A     -0.626631   138A     -0.624767  
     139A     -0.624478   140A     -0.624203   141A     -0.617088  
     142A     -0.610177   143A     -0.607289   144A     -0.605809  
     145A     -0.596035   146A     -0.589098   147A     -0.586878  
     148A     -0.574690   149A     -0.574112   150A     -0.571767  
     151A     -0.570440   152A     -0.562493   153A     -0.559394  
     154A     -0.557611   155A     -0.554526   156A     -0.553578  
     157A     -0.552844   158A     -0.547695   159A     -0.540921  
     160A     -0.534485   161A     -0.530743   162A     -0.528338  
     163A     -0.525123   164A     -0.524313   165A     -0.521497  
     166A     -0.515802   167A     -0.513432   168A     -0.511713  
     169A     -0.501066   170A     -0.499725   171A     -0.490231  
     172A     -0.488407   173A     -0.485043   174A     -0.480134  
     175A     -0.478760   176A     -0.470765   177A     -0.463251  
     178A     -0.458638   179A     -0.453612   180A     -0.451502  
     181A     -0.449372   182A     -0.444686   183A     -0.443218  
     184A     -0.441226   185A     -0.440285   186A     -0.439496  
     187A     -0.435871   188A     -0.432859   189A     -0.429906  
     190A     -0.429896   191A     -0.426384   192A     -0.405197  
     193A     -0.382990   194A     -0.378465   195A     -0.372508  
     196A     -0.371578   197A     -0.371575   198A     -0.368013  
     199A     -0.363582  

    Virtual:                                                              

     200A      0.081783   201A      0.101035   202A      0.101719  
     203A      0.105250   204A      0.108743   205A      0.109368  
     206A      0.112888   207A      0.114880   208A      0.115757  
     209A      0.117470   210A      0.117816   211A      0.123364  
     212A      0.133385   213A      0.138876   214A      0.143755  
     215A      0.145361   216A      0.148695   217A      0.150221  
     218A      0.152251   219A      0.152748   220A      0.155931  
     221A      0.157428   222A      0.159829   223A      0.161979  
     224A      0.164038   225A      0.167038   226A      0.170164  
     227A      0.171564   228A      0.172770   229A      0.175328  
     230A      0.176373   231A      0.177175   232A      0.178668  
     233A      0.178697   234A      0.182854   235A      0.187530  
     236A      0.194062   237A      0.195397   238A      0.196801  
     239A      0.198058   240A      0.199991   241A      0.201161  
     242A      0.204239   243A      0.206687   244A      0.213888  
     245A      0.216471   246A      0.218272   247A      0.221186  
     248A      0.222707   249A      0.224803   250A      0.230000  
     251A      0.230523   252A      0.235376   253A      0.237199  
     254A      0.238392   255A      0.240920   256A      0.243654  
     257A      0.250121   258A      0.256689   259A      0.262553  
     260A      0.271833   261A      0.274549   262A      0.282130  
     263A      0.284268   264A      0.285796   265A      0.289848  
     266A      0.297542   267A      0.305215   268A      0.306370  
     269A      0.309232   270A      0.309972   271A      0.314718  
     272A      0.316107   273A      0.321730   274A      0.329877  
     275A      0.331014   276A      0.335963   277A      0.340785  
     278A      0.342267   279A      0.344339   280A      0.347671  
     281A      0.347696   282A      0.350522   283A      0.352180  
     284A      0.352735   285A      0.355820   286A      0.357029  
     287A      0.357929   288A      0.362374   289A      0.369209  
     290A      0.371542   291A      0.372723   292A      0.374172  
     293A      0.377215   294A      0.382693   295A      0.387213  
     296A      0.391245   297A      0.394465   298A      0.396205  
     299A      0.405167   300A      0.407139   301A      0.409670  
     302A      0.410550   303A      0.413782   304A      0.419004  
     305A      0.422550   306A      0.425874   307A      0.429794  
     308A      0.433947   309A      0.437319   310A      0.439506  
     311A      0.442790   312A      0.444563   313A      0.451088  
     314A      0.454084   315A      0.457458   316A      0.458717  
     317A      0.461549   318A      0.462009   319A      0.465519  
     320A      0.467582   321A      0.468243   322A      0.470242  
     323A      0.475795   324A      0.480086   325A      0.483129  
     326A      0.483494   327A      0.484527   328A      0.486385  
     329A      0.490560   330A      0.492696   331A      0.495576  
     332A      0.497213   333A      0.497698   334A      0.499378  
     335A      0.503429   336A      0.509114   337A      0.510227  
     338A      0.510733   339A      0.512431   340A      0.514948  
     341A      0.518103   342A      0.521317   343A      0.523014  
     344A      0.527586   345A      0.528601   346A      0.531019  
     347A      0.535131   348A      0.539871   349A      0.542235  
     350A      0.544625   351A      0.547832   352A      0.549931  
     353A      0.550272   354A      0.551990   355A      0.552557  
     356A      0.556937   357A      0.558399   358A      0.560129  
     359A      0.561258   360A      0.564868   361A      0.565067  
     362A      0.567753   363A      0.568409   364A      0.569759  
     365A      0.572284   366A      0.573761   367A      0.574333  
     368A      0.576697   369A      0.577788   370A      0.579997  
     371A      0.583160   372A      0.585493   373A      0.588877  
     374A      0.589238   375A      0.590169   376A      0.593448  
     377A      0.596394   378A      0.597158   379A      0.597557  
     380A      0.598437   381A      0.602166   382A      0.602253  
     383A      0.603920   384A      0.605435   385A      0.607084  
     386A      0.612230   387A      0.615366   388A      0.615861  
     389A      0.616434   390A      0.620856   391A      0.620907  
     392A      0.622282   393A      0.626301   394A      0.627660  
     395A      0.628218   396A      0.631057   397A      0.631662  
     398A      0.632593   399A      0.634493   400A      0.634550  
     401A      0.636400   402A      0.636979   403A      0.640957  
     404A      0.643479   405A      0.646332   406A      0.648284  
     407A      0.650420   408A      0.651266   409A      0.651831  
     410A      0.654761   411A      0.655559   412A      0.655774  
     413A      0.658226   414A      0.661370   415A      0.663044  
     416A      0.664689   417A      0.667424   418A      0.671872  
     419A      0.673202   420A      0.676276   421A      0.676810  
     422A      0.679121   423A      0.683197   424A      0.684353  
     425A      0.684530   426A      0.687994   427A      0.689378  
     428A      0.691947   429A      0.695065   430A      0.695881  
     431A      0.698558   432A      0.699230   433A      0.701614  
     434A      0.702220   435A      0.704944   436A      0.707593  
     437A      0.710571   438A      0.712151   439A      0.714307  
     440A      0.715698   441A      0.717157   442A      0.719892  
     443A      0.720863   444A      0.722158   445A      0.724597  
     446A      0.726718   447A      0.729198   448A      0.731609  
     449A      0.732473   450A      0.737219   451A      0.739776  
     452A      0.740775   453A      0.742971   454A      0.743563  
     455A      0.745463   456A      0.746018   457A      0.749598  
     458A      0.750220   459A      0.752855   460A      0.753051  
     461A      0.759013   462A      0.760467   463A      0.763531  
     464A      0.765522   465A      0.765602   466A      0.767075  
     467A      0.773391   468A      0.774378   469A      0.777959  
     470A      0.781173   471A      0.783387   472A      0.784297  
     473A      0.785624   474A      0.787016   475A      0.790224  
     476A      0.792253   477A      0.792957   478A      0.795135  
     479A      0.801033   480A      0.801445   481A      0.802811  
     482A      0.804171   483A      0.807717   484A      0.812078  
     485A      0.812976   486A      0.818870   487A      0.822537  
     488A      0.829350   489A      0.830884   490A      0.833245  
     491A      0.840980   492A      0.843003   493A      0.843698  
     494A      0.844193   495A      0.844669   496A      0.848065  
     497A      0.849300   498A      0.850917   499A      0.855249  
     500A      0.860179   501A      0.861874   502A      0.864841  
     503A      0.867485   504A      0.872329   505A      0.877782  
     506A      0.878504   507A      0.879305   508A      0.881917  
     509A      0.885190   510A      0.893278   511A      0.895035  
     512A      0.898838   513A      0.899617   514A      0.901016  
     515A      0.909106   516A      0.913522   517A      0.914499  
     518A      0.915267   519A      0.917112   520A      0.917859  
     521A      0.921921   522A      0.922490   523A      0.927724  
     524A      0.929501   525A      0.934762   526A      0.940815  
     527A      0.940995   528A      0.942847   529A      0.943605  
     530A      0.943799   531A      0.946005   532A      0.946226  
     533A      0.947594   534A      0.952729   535A      0.957704  
     536A      0.961521   537A      0.961697   538A      0.963334  
     539A      0.967188   540A      0.969236   541A      0.970924  
     542A      0.971274   543A      0.974242   544A      0.981255  
     545A      0.984450   546A      0.986641   547A      0.989975  
     548A      0.998982   549A      1.000267   550A      1.000523  
     551A      1.000578   552A      1.005810   553A      1.008043  
     554A      1.008808   555A      1.010859   556A      1.013404  
     557A      1.017534   558A      1.020540   559A      1.025894  
     560A      1.028077   561A      1.031972   562A      1.037094  
     563A      1.042188   564A      1.045977   565A      1.047088  
     566A      1.048219   567A      1.053693   568A      1.056835  
     569A      1.057848   570A      1.058339   571A      1.062840  
     572A      1.064783   573A      1.068278   574A      1.069825  
     575A      1.076789   576A      1.081179   577A      1.083503  
     578A      1.086502   579A      1.087297   580A      1.087450  
     581A      1.088874   582A      1.098020   583A      1.103410  
     584A      1.108831   585A      1.109570   586A      1.110030  
     587A      1.117246   588A      1.117487   589A      1.122886  
     590A      1.123636   591A      1.126745   592A      1.129774  
     593A      1.130546   594A      1.130610   595A      1.136184  
     596A      1.136860   597A      1.145853   598A      1.147000  
     599A      1.150109   600A      1.150489   601A      1.155287  
     602A      1.158694   603A      1.159275   604A      1.164082  
     605A      1.168649   606A      1.172240   607A      1.174056  
     608A      1.177925   609A      1.184380   610A      1.186584  
     611A      1.187407   612A      1.190668   613A      1.193388  
     614A      1.193532   615A      1.196389   616A      1.200013  
     617A      1.203213   618A      1.205746   619A      1.206191  
     620A      1.207487   621A      1.208514   622A      1.210105  
     623A      1.213954   624A      1.214346   625A      1.216854  
     626A      1.219970   627A      1.223721   628A      1.225584  
     629A      1.231584   630A      1.233399   631A      1.234714  
     632A      1.235868   633A      1.236476   634A      1.241865  
     635A      1.244703   636A      1.246652   637A      1.248089  
     638A      1.251510   639A      1.255870   640A      1.255937  
     641A      1.256919   642A      1.261282   643A      1.264903  
     644A      1.266058   645A      1.270776   646A      1.271318  
     647A      1.274798   648A      1.278450   649A      1.281362  
     650A      1.283005   651A      1.283551   652A      1.284440  
     653A      1.286025   654A      1.292193   655A      1.299299  
     656A      1.300024   657A      1.302161   658A      1.305695  
     659A      1.309956   660A      1.311444   661A      1.314356  
     662A      1.316936   663A      1.317683   664A      1.318937  
     665A      1.319784   666A      1.322948   667A      1.328715  
     668A      1.331307   669A      1.334592   670A      1.338283  
     671A      1.339140   672A      1.343412   673A      1.344961  
     674A      1.345443   675A      1.346658   676A      1.347281  
     677A      1.349061   678A      1.351871   679A      1.352748  
     680A      1.358434   681A      1.361934   682A      1.366197  
     683A      1.367504   684A      1.368209   685A      1.371170  
     686A      1.374530   687A      1.377458   688A      1.380856  
     689A      1.385980   690A      1.387228   691A      1.390920  
     692A      1.395111   693A      1.398076   694A      1.398598  
     695A      1.401685   696A      1.403256   697A      1.404035  
     698A      1.406779   699A      1.410525   700A      1.414316  
     701A      1.414550   702A      1.416601   703A      1.418145  
     704A      1.422398   705A      1.426103   706A      1.431407  
     707A      1.434241   708A      1.437742   709A      1.442380  
     710A      1.444316   711A      1.446072   712A      1.446431  
     713A      1.448861   714A      1.454977   715A      1.462170  
     716A      1.462677   717A      1.465750   718A      1.467593  
     719A      1.475364   720A      1.476106   721A      1.479593  
     722A      1.481381   723A      1.484627   724A      1.486232  
     725A      1.488373   726A      1.489555   727A      1.492064  
     728A      1.493236   729A      1.494102   730A      1.497014  
     731A      1.498620   732A      1.503202   733A      1.511956  
     734A      1.513239   735A      1.513466   736A      1.515832  
     737A      1.517082   738A      1.520747   739A      1.523848  
     740A      1.524794   741A      1.525945   742A      1.528640  
     743A      1.533632   744A      1.536653   745A      1.540015  
     746A      1.550972   747A      1.553650   748A      1.555091  
     749A      1.557418   750A      1.561489   751A      1.564727  
     752A      1.568077   753A      1.569774   754A      1.570502  
     755A      1.573206   756A      1.574148   757A      1.576825  
     758A      1.578164   759A      1.583893   760A      1.585827  
     761A      1.591779   762A      1.592888   763A      1.595441  
     764A      1.596677   765A      1.598025   766A      1.602694  
     767A      1.606386   768A      1.606736   769A      1.610228  
     770A      1.611695   771A      1.616489   772A      1.617151  
     773A      1.620775   774A      1.622376   775A      1.622527  
     776A      1.623776   777A      1.625286   778A      1.628837  
     779A      1.632757   780A      1.635551   781A      1.639770  
     782A      1.640627   783A      1.648066   784A      1.652448  
     785A      1.658836   786A      1.660224   787A      1.662112  
     788A      1.662334   789A      1.666061   790A      1.670718  
     791A      1.672843   792A      1.674399   793A      1.675166  
     794A      1.677425   795A      1.678456   796A      1.687995  
     797A      1.688919   798A      1.690429   799A      1.693339  
     800A      1.694803   801A      1.699879   802A      1.704151  
     803A      1.705920   804A      1.707805   805A      1.713508  
     806A      1.714441   807A      1.719626   808A      1.725268  
     809A      1.727592   810A      1.731628   811A      1.732794  
     812A      1.746045   813A      1.749473   814A      1.750023  
     815A      1.752171   816A      1.754088   817A      1.758313  
     818A      1.761172   819A      1.762179   820A      1.766556  
     821A      1.770726   822A      1.781838   823A      1.785234  
     824A      1.788492   825A      1.791025   826A      1.792931  
     827A      1.796134   828A      1.800739   829A      1.809494  
     830A      1.810543   831A      1.818305   832A      1.821405  
     833A      1.825220   834A      1.827688   835A      1.833044  
     836A      1.835614   837A      1.837317   838A      1.838679  
     839A      1.846176   840A      1.849745   841A      1.852686  
     842A      1.857215   843A      1.865776   844A      1.867093  
     845A      1.872889   846A      1.883799   847A      1.894794  
     848A      1.904251   849A      1.909234   850A      1.910255  
     851A      1.913118   852A      1.913253   853A      1.923108  
     854A      1.925443   855A      1.929226   856A      1.933709  
     857A      1.934651   858A      1.936595   859A      1.937523  
     860A      1.939472   861A      1.940122   862A      1.945203  
     863A      1.948827   864A      1.953357   865A      1.957092  
     866A      1.958228   867A      1.962827   868A      1.965349  
     869A      1.973937   870A      1.978450   871A      1.981744  
     872A      1.985235   873A      1.988372   874A      1.989645  
     875A      1.993444   876A      1.999785   877A      2.002075  
     878A      2.004441   879A      2.005573   880A      2.008593  
     881A      2.014969   882A      2.016025   883A      2.018301  
     884A      2.021874   885A      2.023195   886A      2.025769  
     887A      2.032865   888A      2.036860   889A      2.039006  
     890A      2.048538   891A      2.059688   892A      2.061560  
     893A      2.067232   894A      2.068455   895A      2.070048  
     896A      2.071957   897A      2.081970   898A      2.086677  
     899A      2.094600   900A      2.101581   901A      2.105499  
     902A      2.106815   903A      2.116891   904A      2.125730  
     905A      2.135438   906A      2.136852   907A      2.149053  
     908A      2.150538   909A      2.153349   910A      2.159422  
     911A      2.168546   912A      2.176134   913A      2.178247  
     914A      2.186812   915A      2.188378   916A      2.211615  
     917A      2.221586   918A      2.226151   919A      2.240889  
     920A      2.256422   921A      2.261546   922A      2.268051  
     923A      2.271621   924A      2.275752   925A      2.282254  
     926A      2.286336   927A      2.293206   928A      2.297616  
     929A      2.305452   930A      2.310585   931A      2.319548  
     932A      2.321567   933A      2.322508   934A      2.335108  
     935A      2.340911   936A      2.352081   937A      2.356804  
     938A      2.359267   939A      2.365736   940A      2.381186  
     941A      2.382952   942A      2.389054   943A      2.389996  
     944A      2.393235   945A      2.395166   946A      2.403805  
     947A      2.411828   948A      2.415588   949A      2.424399  
     950A      2.426488   951A      2.429928   952A      2.431367  
     953A      2.433252   954A      2.435290   955A      2.439802  
     956A      2.446540   957A      2.450580   958A      2.453388  
     959A      2.460513   960A      2.461411   961A      2.465490  
     962A      2.467943   963A      2.469900   964A      2.472294  
     965A      2.473275   966A      2.481047   967A      2.482209  
     968A      2.494256   969A      2.500541   970A      2.503530  
     971A      2.506231   972A      2.511278   973A      2.517471  
     974A      2.524851   975A      2.526063   976A      2.530975  
     977A      2.543342   978A      2.545701   979A      2.549407  
     980A      2.556486   981A      2.561744   982A      2.568724  
     983A      2.578074   984A      2.589475   985A      2.595239  
     986A      2.604833   987A      2.608562   988A      2.611178  
     989A      2.616618   990A      2.630233   991A      2.635350  
     992A      2.638586   993A      2.642299   994A      2.648018  
     995A      2.662784   996A      2.663841   997A      2.666350  
     998A      2.671905   999A      2.683510  1000A      2.686807  
    1001A      2.691820  1002A      2.698175  1003A      2.699041  
    1004A      2.700921  1005A      2.705285  1006A      2.716177  
    1007A      2.721269  1008A      2.731036  1009A      2.733775  
    1010A      2.740262  1011A      2.740676  1012A      2.745796  
    1013A      2.764426  1014A      2.765237  1015A      2.767707  
    1016A      2.769666  1017A      2.772359  1018A      2.777289  
    1019A      2.778001  1020A      2.781004  1021A      2.784659  
    1022A      2.789390  1023A      2.796630  1024A      2.798454  
    1025A      2.806441  1026A      2.809609  1027A      2.816286  
    1028A      2.818056  1029A      2.825248  1030A      2.827823  
    1031A      2.829173  1032A      2.832209  1033A      2.835894  
    1034A      2.840272  1035A      2.849862  1036A      2.853503  
    1037A      2.854237  1038A      2.861831  1039A      2.863852  
    1040A      2.866125  1041A      2.867348  1042A      2.869103  
    1043A      2.873551  1044A      2.874933  1045A      2.876012  
    1046A      2.890849  1047A      2.893445  1048A      2.894559  
    1049A      2.898041  1050A      2.899749  1051A      2.900123  
    1052A      2.901208  1053A      2.905598  1054A      2.908596  
    1055A      2.920978  1056A      2.922099  1057A      2.924809  
    1058A      2.925671  1059A      2.929432  1060A      2.935057  
    1061A      2.935098  1062A      2.936817  1063A      2.940265  
    1064A      2.944101  1065A      2.948359  1066A      2.950449  
    1067A      2.951512  1068A      2.957464  1069A      2.959091  
    1070A      2.964074  1071A      2.971978  1072A      2.973653  
    1073A      2.976309  1074A      2.978628  1075A      2.980330  
    1076A      2.990121  1077A      2.992304  1078A      2.995994  
    1079A      2.999669  1080A      3.002971  1081A      3.007446  
    1082A      3.010766  1083A      3.011537  1084A      3.014815  
    1085A      3.016498  1086A      3.019107  1087A      3.021541  
    1088A      3.023689  1089A      3.026549  1090A      3.036232  
    1091A      3.040230  1092A      3.041420  1093A      3.043081  
    1094A      3.047027  1095A      3.049289  1096A      3.050879  
    1097A      3.051388  1098A      3.061797  1099A      3.062674  
    1100A      3.068350  1101A      3.070540  1102A      3.071845  
    1103A      3.074044  1104A      3.078232  1105A      3.078638  
    1106A      3.083278  1107A      3.084069  1108A      3.087101  
    1109A      3.090737  1110A      3.098274  1111A      3.107588  
    1112A      3.109386  1113A      3.112380  1114A      3.118115  
    1115A      3.127725  1116A      3.131994  1117A      3.134456  
    1118A      3.135207  1119A      3.139147  1120A      3.140289  
    1121A      3.144196  1122A      3.148209  1123A      3.150791  
    1124A      3.161195  1125A      3.162064  1126A      3.162696  
    1127A      3.166370  1128A      3.171693  1129A      3.173256  
    1130A      3.175061  1131A      3.180737  1132A      3.183414  
    1133A      3.186382  1134A      3.189368  1135A      3.193388  
    1136A      3.194535  1137A      3.195288  1138A      3.202814  
    1139A      3.205759  1140A      3.206633  1141A      3.210827  
    1142A      3.211033  1143A      3.211431  1144A      3.212389  
    1145A      3.213002  1146A      3.218091  1147A      3.219877  
    1148A      3.224686  1149A      3.225420  1150A      3.227508  
    1151A      3.241732  1152A      3.244858  1153A      3.245702  
    1154A      3.246436  1155A      3.248445  1156A      3.249974  
    1157A      3.255655  1158A      3.257810  1159A      3.261334  
    1160A      3.263434  1161A      3.265643  1162A      3.266544  
    1163A      3.267827  1164A      3.272285  1165A      3.276430  
    1166A      3.278046  1167A      3.279198  1168A      3.283333  
    1169A      3.288010  1170A      3.288388  1171A      3.290546  
    1172A      3.291552  1173A      3.294151  1174A      3.296629  
    1175A      3.299976  1176A      3.303144  1177A      3.306274  
    1178A      3.306331  1179A      3.309070  1180A      3.314258  
    1181A      3.322654  1182A      3.323968  1183A      3.324673  
    1184A      3.325047  1185A      3.326921  1186A      3.328001  
    1187A      3.331315  1188A      3.332423  1189A      3.334931  
    1190A      3.338465  1191A      3.340052  1192A      3.346745  
    1193A      3.347983  1194A      3.349900  1195A      3.352600  
    1196A      3.357615  1197A      3.357834  1198A      3.361556  
    1199A      3.362073  1200A      3.363478  1201A      3.365434  
    1202A      3.368919  1203A      3.371442  1204A      3.374336  
    1205A      3.378909  1206A      3.381687  1207A      3.384632  
    1208A      3.389236  1209A      3.391452  1210A      3.393310  
    1211A      3.396195  1212A      3.396404  1213A      3.400175  
    1214A      3.400635  1215A      3.402213  1216A      3.403038  
    1217A      3.404781  1218A      3.405292  1219A      3.407442  
    1220A      3.409446  1221A      3.411852  1222A      3.417193  
    1223A      3.417374  1224A      3.419182  1225A      3.425579  
    1226A      3.427637  1227A      3.428610  1228A      3.433069  
    1229A      3.436643  1230A      3.437041  1231A      3.437209  
    1232A      3.441163  1233A      3.443231  1234A      3.446440  
    1235A      3.448276  1236A      3.450951  1237A      3.451901  
    1238A      3.454419  1239A      3.458787  1240A      3.460863  
    1241A      3.462149  1242A      3.462770  1243A      3.464986  
    1244A      3.466646  1245A      3.470651  1246A      3.476561  
    1247A      3.479020  1248A      3.480395  1249A      3.482038  
    1250A      3.482177  1251A      3.484140  1252A      3.485743  
    1253A      3.485998  1254A      3.489414  1255A      3.493607  
    1256A      3.494921  1257A      3.498332  1258A      3.499194  
    1259A      3.499773  1260A      3.501456  1261A      3.502058  
    1262A      3.503955  1263A      3.508995  1264A      3.511941  
    1265A      3.513996  1266A      3.514489  1267A      3.515661  
    1268A      3.519752  1269A      3.520000  1270A      3.522973  
    1271A      3.524513  1272A      3.526679  1273A      3.527549  
    1274A      3.531236  1275A      3.531315  1276A      3.538357  
    1277A      3.539648  1278A      3.541483  1279A      3.543082  
    1280A      3.550468  1281A      3.553258  1282A      3.555593  
    1283A      3.556123  1284A      3.558533  1285A      3.559032  
    1286A      3.565224  1287A      3.567103  1288A      3.569816  
    1289A      3.571079  1290A      3.574799  1291A      3.577216  
    1292A      3.580977  1293A      3.586782  1294A      3.591402  
    1295A      3.593828  1296A      3.595173  1297A      3.603000  
    1298A      3.604236  1299A      3.606596  1300A      3.607627  
    1301A      3.611300  1302A      3.612728  1303A      3.614179  
    1304A      3.618054  1305A      3.619546  1306A      3.626005  
    1307A      3.626979  1308A      3.634212  1309A      3.636885  
    1310A      3.640262  1311A      3.641165  1312A      3.648374  
    1313A      3.652278  1314A      3.652711  1315A      3.657505  
    1316A      3.658515  1317A      3.662868  1318A      3.666539  
    1319A      3.667342  1320A      3.668685  1321A      3.671250  
    1322A      3.673656  1323A      3.674795  1324A      3.677750  
    1325A      3.680095  1326A      3.685771  1327A      3.688458  
    1328A      3.690280  1329A      3.691375  1330A      3.692291  
    1331A      3.693614  1332A      3.696699  1333A      3.703725  
    1334A      3.707580  1335A      3.708644  1336A      3.711715  
    1337A      3.711793  1338A      3.711939  1339A      3.715637  
    1340A      3.718088  1341A      3.723202  1342A      3.723735  
    1343A      3.724718  1344A      3.729287  1345A      3.735528  
    1346A      3.737126  1347A      3.738344  1348A      3.739061  
    1349A      3.740014  1350A      3.743724  1351A      3.748713  
    1352A      3.749838  1353A      3.752377  1354A      3.755651  
    1355A      3.756215  1356A      3.759039  1357A      3.759397  
    1358A      3.766338  1359A      3.769996  1360A      3.771590  
    1361A      3.773853  1362A      3.778565  1363A      3.778583  
    1364A      3.779199  1365A      3.786061  1366A      3.797172  
    1367A      3.800059  1368A      3.801585  1369A      3.801991  
    1370A      3.807762  1371A      3.809202  1372A      3.816084  
    1373A      3.818630  1374A      3.819713  1375A      3.825270  
    1376A      3.827796  1377A      3.828969  1378A      3.830490  
    1379A      3.831737  1380A      3.835333  1381A      3.838579  
    1382A      3.840385  1383A      3.843411  1384A      3.845233  
    1385A      3.846074  1386A      3.847141  1387A      3.850254  
    1388A      3.851422  1389A      3.854570  1390A      3.855485  
    1391A      3.860467  1392A      3.865615  1393A      3.868216  
    1394A      3.869014  1395A      3.876947  1396A      3.878579  
    1397A      3.880900  1398A      3.882360  1399A      3.890063  
    1400A      3.890847  1401A      3.891777  1402A      3.894169  
    1403A      3.901689  1404A      3.905617  1405A      3.906727  
    1406A      3.908200  1407A      3.911644  1408A      3.913602  
    1409A      3.917730  1410A      3.921078  1411A      3.922759  
    1412A      3.925118  1413A      3.925842  1414A      3.929453  
    1415A      3.932531  1416A      3.933958  1417A      3.936409  
    1418A      3.939723  1419A      3.941467  1420A      3.941828  
    1421A      3.945085  1422A      3.953694  1423A      3.957433  
    1424A      3.958418  1425A      3.959961  1426A      3.961632  
    1427A      3.964158  1428A      3.968497  1429A      3.975593  
    1430A      3.977261  1431A      3.978236  1432A      3.980718  
    1433A      3.984005  1434A      3.987046  1435A      3.994170  
    1436A      3.995867  1437A      3.999613  1438A      4.000280  
    1439A      4.005505  1440A      4.013365  1441A      4.013426  
    1442A      4.013824  1443A      4.015192  1444A      4.016877  
    1445A      4.025367  1446A      4.025451  1447A      4.027556  
    1448A      4.029337  1449A      4.030309  1450A      4.039979  
    1451A      4.043047  1452A      4.045751  1453A      4.047925  
    1454A      4.051037  1455A      4.051959  1456A      4.054417  
    1457A      4.057889  1458A      4.066747  1459A      4.069159  
    1460A      4.070944  1461A      4.074309  1462A      4.079741  
    1463A      4.080030  1464A      4.080543  1465A      4.082639  
    1466A      4.086996  1467A      4.087879  1468A      4.091692  
    1469A      4.092010  1470A      4.096839  1471A      4.105734  
    1472A      4.109010  1473A      4.113040  1474A      4.118863  
    1475A      4.119976  1476A      4.120796  1477A      4.121381  
    1478A      4.122340  1479A      4.128478  1480A      4.135551  
    1481A      4.136394  1482A      4.139618  1483A      4.139706  
    1484A      4.141722  1485A      4.145146  1486A      4.147741  
    1487A      4.147968  1488A      4.153048  1489A      4.158023  
    1490A      4.158973  1491A      4.164524  1492A      4.165291  
    1493A      4.169452  1494A      4.170424  1495A      4.172648  
    1496A      4.173015  1497A      4.174271  1498A      4.175058  
    1499A      4.175436  1500A      4.178519  1501A      4.181458  
    1502A      4.183359  1503A      4.187863  1504A      4.191363  
    1505A      4.194689  1506A      4.199141  1507A      4.200850  
    1508A      4.203893  1509A      4.206769  1510A      4.207984  
    1511A      4.209857  1512A      4.215428  1513A      4.218428  
    1514A      4.219036  1515A      4.219755  1516A      4.223518  
    1517A      4.226069  1518A      4.234515  1519A      4.236137  
    1520A      4.237416  1521A      4.239850  1522A      4.245185  
    1523A      4.246994  1524A      4.257339  1525A      4.259339  
    1526A      4.262916  1527A      4.263928  1528A      4.266456  
    1529A      4.267734  1530A      4.269110  1531A      4.272649  
    1532A      4.272806  1533A      4.277229  1534A      4.279491  
    1535A      4.283086  1536A      4.284943  1537A      4.287777  
    1538A      4.294625  1539A      4.296284  1540A      4.298041  
    1541A      4.303322  1542A      4.304093  1543A      4.305288  
    1544A      4.309026  1545A      4.314078  1546A      4.314340  
    1547A      4.315352  1548A      4.319080  1549A      4.324295  
    1550A      4.326267  1551A      4.326371  1552A      4.326791  
    1553A      4.331305  1554A      4.335726  1555A      4.335963  
    1556A      4.338884  1557A      4.340890  1558A      4.344203  
    1559A      4.347766  1560A      4.349824  1561A      4.350287  
    1562A      4.354991  1563A      4.355553  1564A      4.356153  
    1565A      4.357689  1566A      4.360701  1567A      4.361569  
    1568A      4.364153  1569A      4.364530  1570A      4.373062  
    1571A      4.373985  1572A      4.379265  1573A      4.380124  
    1574A      4.381063  1575A      4.385759  1576A      4.389962  
    1577A      4.392680  1578A      4.394955  1579A      4.398263  
    1580A      4.399270  1581A      4.400413  1582A      4.404907  
    1583A      4.407073  1584A      4.412406  1585A      4.413890  
    1586A      4.424459  1587A      4.426611  1588A      4.427807  
    1589A      4.430141  1590A      4.433805  1591A      4.434587  
    1592A      4.438114  1593A      4.440104  1594A      4.440758  
    1595A      4.442736  1596A      4.450393  1597A      4.452539  
    1598A      4.454788  1599A      4.458013  1600A      4.459668  
    1601A      4.462139  1602A      4.463193  1603A      4.463368  
    1604A      4.469286  1605A      4.470506  1606A      4.471151  
    1607A      4.473937  1608A      4.478514  1609A      4.481197  
    1610A      4.483304  1611A      4.489557  1612A      4.490581  
    1613A      4.491588  1614A      4.492847  1615A      4.498324  
    1616A      4.498919  1617A      4.501563  1618A      4.504511  
    1619A      4.507186  1620A      4.515635  1621A      4.517233  
    1622A      4.525102  1623A      4.525513  1624A      4.529441  
    1625A      4.530818  1626A      4.532644  1627A      4.535128  
    1628A      4.535518  1629A      4.542447  1630A      4.545426  
    1631A      4.548497  1632A      4.550085  1633A      4.554190  
    1634A      4.562346  1635A      4.566918  1636A      4.569529  
    1637A      4.572000  1638A      4.572401  1639A      4.572808  
    1640A      4.573433  1641A      4.574490  1642A      4.576021  
    1643A      4.579188  1644A      4.582459  1645A      4.587608  
    1646A      4.589879  1647A      4.592268  1648A      4.594942  
    1649A      4.598837  1650A      4.600905  1651A      4.602015  
    1652A      4.606328  1653A      4.609068  1654A      4.611480  
    1655A      4.615346  1656A      4.619424  1657A      4.620742  
    1658A      4.622386  1659A      4.623688  1660A      4.625849  
    1661A      4.629032  1662A      4.634575  1663A      4.635427  
    1664A      4.638050  1665A      4.638940  1666A      4.646624  
    1667A      4.647877  1668A      4.652441  1669A      4.653321  
    1670A      4.661867  1671A      4.666983  1672A      4.669497  
    1673A      4.674403  1674A      4.676453  1675A      4.681633  
    1676A      4.684334  1677A      4.687202  1678A      4.687626  
    1679A      4.698965  1680A      4.700559  1681A      4.706688  
    1682A      4.708695  1683A      4.712757  1684A      4.713449  
    1685A      4.723034  1686A      4.724800  1687A      4.726636  
    1688A      4.727542  1689A      4.740099  1690A      4.743396  
    1691A      4.743757  1692A      4.745080  1693A      4.746554  
    1694A      4.749185  1695A      4.756306  1696A      4.761636  
    1697A      4.764581  1698A      4.765879  1699A      4.767340  
    1700A      4.772626  1701A      4.774028  1702A      4.775360  
    1703A      4.779048  1704A      4.781385  1705A      4.782200  
    1706A      4.782411  1707A      4.794885  1708A      4.797818  
    1709A      4.798955  1710A      4.801313  1711A      4.806419  
    1712A      4.813712  1713A      4.816751  1714A      4.818398  
    1715A      4.822718  1716A      4.824543  1717A      4.827186  
    1718A      4.834512  1719A      4.841178  1720A      4.848991  
    1721A      4.850200  1722A      4.852687  1723A      4.858101  
    1724A      4.861712  1725A      4.866425  1726A      4.878467  
    1727A      4.881149  1728A      4.882215  1729A      4.885337  
    1730A      4.887928  1731A      4.889141  1732A      4.895121  
    1733A      4.911531  1734A      4.912394  1735A      4.923705  
    1736A      4.927657  1737A      4.930260  1738A      4.935724  
    1739A      4.942313  1740A      4.942950  1741A      4.955576  
    1742A      4.970476  1743A      4.973350  1744A      4.974030  
    1745A      4.976922  1746A      4.980953  1747A      4.989081  
    1748A      5.003013  1749A      5.006403  1750A      5.010983  
    1751A      5.011908  1752A      5.022949  1753A      5.032967  
    1754A      5.033976  1755A      5.036120  1756A      5.043922  
    1757A      5.045018  1758A      5.046922  1759A      5.051090  
    1760A      5.054056  1761A      5.055815  1762A      5.058640  
    1763A      5.065070  1764A      5.065379  1765A      5.070884  
    1766A      5.085714  1767A      5.089357  1768A      5.090778  
    1769A      5.091156  1770A      5.094441  1771A      5.097331  
    1772A      5.098728  1773A      5.108656  1774A      5.115217  
    1775A      5.117658  1776A      5.126133  1777A      5.127795  
    1778A      5.128811  1779A      5.136376  1780A      5.148118  
    1781A      5.152463  1782A      5.154159  1783A      5.156756  
    1784A      5.159132  1785A      5.165217  1786A      5.170074  
    1787A      5.174974  1788A      5.176489  1789A      5.183422  
    1790A      5.184806  1791A      5.192098  1792A      5.192644  
    1793A      5.194515  1794A      5.196644  1795A      5.202560  
    1796A      5.207583  1797A      5.208606  1798A      5.225458  
    1799A      5.227422  1800A      5.229796  1801A      5.231214  
    1802A      5.233452  1803A      5.235753  1804A      5.240798  
    1805A      5.249074  1806A      5.251313  1807A      5.251738  
    1808A      5.256799  1809A      5.263006  1810A      5.263198  
    1811A      5.264065  1812A      5.267640  1813A      5.267955  
    1814A      5.272100  1815A      5.277694  1816A      5.284960  
    1817A      5.285390  1818A      5.287603  1819A      5.288387  
    1820A      5.299878  1821A      5.303889  1822A      5.306512  
    1823A      5.310053  1824A      5.314178  1825A      5.321303  
    1826A      5.329382  1827A      5.332615  1828A      5.335676  
    1829A      5.341144  1830A      5.344020  1831A      5.347885  
    1832A      5.350490  1833A      5.352164  1834A      5.357029  
    1835A      5.357063  1836A      5.360425  1837A      5.365101  
    1838A      5.367711  1839A      5.370345  1840A      5.381709  
    1841A      5.385403  1842A      5.388419  1843A      5.393936  
    1844A      5.405413  1845A      5.409176  1846A      5.410505  
    1847A      5.420142  1848A      5.420482  1849A      5.429136  
    1850A      5.447482  1851A      5.455454  1852A      5.456447  
    1853A      5.458401  1854A      5.468969  1855A      5.470646  
    1856A      5.473846  1857A      5.482676  1858A      5.492555  
    1859A      5.496220  1860A      5.500859  1861A      5.504707  
    1862A      5.509793  1863A      5.517453  1864A      5.521738  
    1865A      5.521934  1866A      5.526445  1867A      5.528579  
    1868A      5.531315  1869A      5.533583  1870A      5.536901  
    1871A      5.539233  1872A      5.541354  1873A      5.541787  
    1874A      5.547291  1875A      5.550054  1876A      5.552887  
    1877A      5.558907  1878A      5.561212  1879A      5.570542  
    1880A      5.581913  1881A      5.585213  1882A      5.601416  
    1883A      5.602942  1884A      5.605787  1885A      5.610044  
    1886A      5.611836  1887A      5.615746  1888A      5.621971  
    1889A      5.628090  1890A      5.628588  1891A      5.631327  
    1892A      5.634480  1893A      5.640818  1894A      5.644411  
    1895A      5.645870  1896A      5.650775  1897A      5.653812  
    1898A      5.654190  1899A      5.657740  1900A      5.658925  
    1901A      5.659691  1902A      5.659901  1903A      5.665658  
    1904A      5.666249  1905A      5.666408  1906A      5.671858  
    1907A      5.676192  1908A      5.677978  1909A      5.680331  
    1910A      5.683575  1911A      5.683923  1912A      5.686159  
    1913A      5.687403  1914A      5.688440  1915A      5.690286  
    1916A      5.693717  1917A      5.697498  1918A      5.701369  
    1919A      5.701497  1920A      5.704849  1921A      5.706963  
    1922A      5.714684  1923A      5.721341  1924A      5.723020  
    1925A      5.732805  1926A      5.735169  1927A      5.740895  
    1928A      5.743734  1929A      5.744911  1930A      5.755094  
    1931A      5.757448  1932A      5.757935  1933A      5.765473  
    1934A      5.769233  1935A      5.772053  1936A      5.773265  
    1937A      5.774861  1938A      5.781262  1939A      5.797262  
    1940A      5.803061  1941A      5.814954  1942A      5.815259  
    1943A      5.817864  1944A      5.819393  1945A      5.832611  
    1946A      5.838930  1947A      5.840331  1948A      5.844225  
    1949A      5.849328  1950A      5.857205  1951A      5.861534  
    1952A      5.872106  1953A      5.882150  1954A      5.887427  
    1955A      5.888802  1956A      5.895926  1957A      5.898759  
    1958A      5.901802  1959A      5.927977  1960A      5.940204  
    1961A      5.954152  1962A      5.964079  1963A      5.982375  
    1964A      5.986817  1965A      5.993690  1966A      6.000948  
    1967A      6.004594  1968A      6.010950  1969A      6.015060  
    1970A      6.019485  1971A      6.020193  1972A      6.021404  
    1973A      6.022268  1974A      6.027519  1975A      6.028570  
    1976A      6.029704  1977A      6.031720  1978A      6.034741  
    1979A      6.039416  1980A      6.042031  1981A      6.049593  
    1982A      6.051429  1983A      6.063891  1984A      6.066924  
    1985A      6.072086  1986A      6.074734  1987A      6.077702  
    1988A      6.080037  1989A      6.094745  1990A      6.096938  
    1991A      6.099698  1992A      6.100011  1993A      6.101869  
    1994A      6.104497  1995A      6.115059  1996A      6.123708  
    1997A      6.125205  1998A      6.126887  1999A      6.128823  
    2000A      6.134618  2001A      6.136252  2002A      6.140986  
    2003A      6.141910  2004A      6.142695  2005A      6.143925  
    2006A      6.164851  2007A      6.166487  2008A      6.171084  
    2009A      6.171843  2010A      6.175701  2011A      6.176431  
    2012A      6.183710  2013A      6.186644  2014A      6.186953  
    2015A      6.188887  2016A      6.194140  2017A      6.200876  
    2018A      6.202297  2019A      6.218560  2020A      6.226664  
    2021A      6.238119  2022A      6.239131  2023A      6.256314  
    2024A      6.261118  2025A      6.263602  2026A      6.270998  
    2027A      6.288469  2028A      6.288991  2029A      6.290073  
    2030A      6.294957  2031A      6.294996  2032A      6.308280  
    2033A      6.310376  2034A      6.324296  2035A      6.334780  
    2036A      6.348585  2037A      6.350834  2038A      6.361921  
    2039A      6.366777  2040A      6.396477  2041A      6.423175  
    2042A      6.450916  2043A      6.457404  2044A      6.462117  
    2045A      6.477052  2046A      6.482118  2047A      6.487837  
    2048A      6.494100  2049A      6.498149  2050A      6.512753  
    2051A      6.541702  2052A      6.566339  2053A      6.580192  
    2054A      6.583274  2055A      6.588220  2056A      6.590022  
    2057A      6.612863  2058A      6.627150  2059A      6.629150  
    2060A      6.632281  2061A      6.632808  2062A      6.635119  
    2063A      6.643583  2064A      6.647639  2065A      6.659172  
    2066A      6.672413  2067A      6.676772  2068A      6.678936  
    2069A      6.694020  2070A      6.696350  2071A      6.701077  
    2072A      6.708471  2073A      6.711190  2074A      6.713362  
    2075A      6.714732  2076A      6.716182  2077A      6.717313  
    2078A      6.720447  2079A      6.730010  2080A      6.741139  
    2081A      6.750719  2082A      6.751996  2083A      6.763092  
    2084A      6.770269  2085A      6.784605  2086A      6.786453  
    2087A      6.796268  2088A      6.801184  2089A      6.810195  
    2090A      6.830560  2091A      6.833846  2092A      6.840761  
    2093A      6.845854  2094A      6.873308  2095A      6.884193  
    2096A      6.895957  2097A      6.900422  2098A      6.910004  
    2099A      6.914620  2100A      6.916381  2101A      6.921298  
    2102A      6.926605  2103A      6.933918  2104A      6.934320  
    2105A      6.943397  2106A      6.943662  2107A      6.944829  
    2108A      6.945093  2109A      6.951582  2110A      6.954535  
    2111A      6.959270  2112A      6.959684  2113A      6.977600  
    2114A      6.979624  2115A      6.986337  2116A      6.987045  
    2117A      6.992963  2118A      6.999661  2119A      7.004664  
    2120A      7.004666  2121A      7.018858  2122A      7.021031  
    2123A      7.026564  2124A      7.033249  2125A      7.034286  
    2126A      7.039954  2127A      7.047177  2128A      7.048352  
    2129A      7.061301  2130A      7.084263  2131A      7.144659  
    2132A      7.155588  2133A      7.165501  2134A      7.195046  
    2135A      7.195174  2136A      7.229314  2137A      7.240759  
    2138A      7.244277  2139A      7.247977  2140A      7.255081  
    2141A      7.264309  2142A      7.265323  2143A      7.265641  
    2144A      7.275375  2145A      7.278295  2146A      7.299903  
    2147A      7.301659  2148A      7.304757  2149A      7.305535  
    2150A      7.326584  2151A      7.341228  2152A      7.341610  
    2153A      7.343512  2154A      7.344174  2155A      7.348119  
    2156A      7.352000  2157A      7.358021  2158A      7.361021  
    2159A      7.365321  2160A      7.368522  2161A      7.368968  
    2162A      7.374145  2163A      7.386402  2164A      7.395027  
    2165A      7.400520  2166A      7.405536  2167A      7.410357  
    2168A      7.420714  2169A      7.421943  2170A      7.440095  
    2171A      7.472585  2172A      7.505005  2173A      7.507724  
    2174A      7.508893  2175A      7.514197  2176A      7.525332  
    2177A      7.533403  2178A      7.535641  2179A      7.537509  
    2180A      7.542700  2181A      7.542857  2182A      7.545356  
    2183A      7.547792  2184A      7.556615  2185A      7.557974  
    2186A      7.558681  2187A      7.562983  2188A      7.589228  
    2189A      7.595806  2190A      7.607779  2191A      7.637509  
    2192A      7.643850  2193A      7.650850  2194A      7.675217  
    2195A      7.694424  2196A      7.711757  2197A      7.758203  
    2198A      7.782345  2199A      7.813524  2200A      7.821699  
    2201A      7.854369  2202A      7.854940  2203A      7.887561  
    2204A      8.057584  2205A      8.134600  2206A      8.150781  
    2207A      8.173544  2208A     10.027635  2209A     10.112126  
    2210A     10.217439  2211A     10.236174  2212A     10.335706  
    2213A     10.354076  2214A     10.554427  2215A     10.562107  
    2216A     10.678637  2217A     10.688370  2218A     10.706256  
    2219A     10.790064  2220A     12.055359  2221A     12.143480  
    2222A     12.175328  2223A     12.273493  2224A     12.312860  
    2225A     12.418931  2226A     12.447730  2227A     12.646517  
    2228A     12.917740  2229A     13.018722  2230A     13.024504  
    2231A     13.105623  2232A     13.121656  2233A     13.147875  
    2234A     13.231088  2235A     13.438972  2236A     13.468367  
    2237A     13.586337  2238A     13.609385  2239A     13.612387  
    2240A     13.714237  2241A     13.731478  2242A     13.731975  
    2243A     13.757698  2244A     13.873086  2245A     13.878073  
    2246A     13.904289  2247A     13.910492  2248A     14.064816  
    2249A     14.112079  2250A     14.234581  2251A     14.255758  
    2252A     14.302287  2253A     14.319048  2254A     14.415544  
    2255A     14.560793  2256A     14.703232  2257A     14.779725  
    2258A     14.885085  

    Final Occupation by Irrep:
              A 
    DOCC [   199 ]

  Energy converged.

  @DF-RHF Final Energy: -2686.82264626233882

   => Energetics <=

    Nuclear Repulsion Energy =           6201.5436595934152137
    One-Electron Energy =              -16036.4830891888050246
    Two-Electron Energy =                7148.1167833330509893
    Total Energy =                      -2686.8226462623388215



Properties will be evaluated at   0.000000,   0.000000,   0.000000 Bohr

Properties computed using the SCF density matrix

  Nuclear Dipole Moment: (a.u.)
     X:   -36.4282      Y:   -12.7853      Z:    -6.2450

  Electronic Dipole Moment: (a.u.)
     X:    35.5671      Y:    11.3580      Z:     6.7185

  Dipole Moment: (a.u.)
     X:    -0.8611      Y:    -1.4273      Z:     0.4735     Total:     1.7329

  Dipole Moment: (Debye)
     X:    -2.1888      Y:    -3.6278      Z:     1.2036     Total:     4.4046


*** tstop() called on hex15 at Sun Mar  4 15:04:28 2018
Module time:
	user time   =    8359.00 seconds =     139.32 minutes
	system time =      50.53 seconds =       0.84 minutes
	total time  =       4710 seconds =      78.50 minutes
Total time:
	user time   =    8359.00 seconds =     139.32 minutes
	system time =      50.53 seconds =       0.84 minutes
	total time  =       4710 seconds =      78.50 minutes

*** Psi4 exiting successfully. Buy a developer a beer!
