
    -----------------------------------------------------------------------
          Psi4: An Open-Source Ab Initio Electronic Structure Package
                               Psi4 1.2a1.dev875 

                         Git: Rev {symm_JK} 0ea9481 dirty


    R. M. Parrish, L. A. Burns, D. G. A. Smith, A. C. Simmonett,
    A. E. DePrince III, E. G. Hohenstein, U. Bozkaya, A. Yu. Sokolov,
    R. Di Remigio, R. M. Richard, J. F. Gonthier, A. M. James,
    H. R. McAlexander, A. Kumar, M. Saitow, X. Wang, B. P. Pritchard,
    P. Verma, H. F. Schaefer III, K. Patkowski, R. A. King, E. F. Valeev,
    F. A. Evangelista, J. M. Turney, T. D. Crawford, and C. D. Sherrill,
    J. Chem. Theory Comput. 13(7) pp 3185--3197 (2017).
    (doi: 10.1021/acs.jctc.7b00174)

    -----------------------------------------------------------------------


    Psi4 started on: Sunday, 04 March 2018 12:52PM

    Process ID:  11372
    PSIDATADIR: /theoryfs2/ds/schieber/Gits/mspsi4/objdir3/stage/usr/local/psi4/share/psi4
    Memory:     500.0 MiB
    Threads:    6
    
  ==> Input File <==

--------------------------------------------------------------------------
memory 60 Gb

molecule protein_81 {
0 1
 N   18.626  30.444   6.627
 C   17.853  29.516   5.837
 C   16.945  30.292   4.886
 O   15.843  30.678   5.237
 C   17.047  28.642   6.811
 C   16.316  27.513   6.146
 O   16.236  27.458   4.905
 O   15.762  26.696   6.882
 N    4.567  24.042   8.795
 C    4.886  22.777   8.145
 C    6.265  22.720   7.521
 O    6.723  23.689   6.900
 N   17.407  27.054  -1.437
 C   17.227  26.751  -0.026
 C   18.555  26.446   0.653
 O   19.003  25.309   0.692
 C   16.258  25.572   0.084
 C   15.759  25.336   1.493
 O   16.399  25.780   2.453
 O   14.731  24.675   1.645
 N   19.106  26.199   3.688
 C   18.957  25.372   4.876
 C   18.845  23.903   4.520
 O   18.660  23.054   5.417
 N   20.536  20.559   2.918
 C   21.779  19.912   2.496
 C   21.693  19.374   1.107
 O   22.642  19.502   0.361
 C   22.169  18.827   3.447
 C   22.272  19.337   4.844
 O   22.714  20.482   5.029
 O   21.836  18.647   5.778
 N   15.750  18.102  -3.440
 C   14.628  17.162  -3.514
 C   13.618  17.726  -4.436
 O   13.169  18.861  -4.263
 C   13.781  17.005  -2.245
 C   13.297  15.592  -2.184
 C   14.518  17.455  -1.007
 H   18.180  30.990   7.295
 H   18.510  28.835   5.249
 H   16.336  29.276   7.377
 H   17.778  28.186   7.516
 H   15.845  26.702   7.843
 H    4.436  24.871   8.195
 H    4.744  21.930   8.802
 H    4.143  22.632   7.335
 H   17.860  26.421  -2.023
 H   16.724  27.595   0.500
 H   16.724  24.663  -0.337
 H   15.363  25.845  -0.519
 H   16.737  25.171   3.109
 H   18.314  26.771   3.377
 H   18.015  25.631   5.391
 H   19.792  25.567   5.577
 H   19.976  20.073   3.597
 H   22.602  20.664   2.537
 H   23.175  18.459   3.144
 H   21.465  17.966   3.392
 H   21.492  17.752   5.634
 H   15.541  19.065  -3.172
 H   15.011  16.180  -3.836
 H   12.886  17.674  -2.203
 H   14.115  14.872  -2.046
 H   12.706  15.323  -3.086
 H   12.624  15.478  -1.307
 H   15.405  16.799  -0.936
 H   13.886  17.316  -0.103
 H   14.813  18.522  -1.068
 H   19.646  30.419   6.619
 H   17.295  30.415   3.850
 H    4.454  24.117   9.806
 H    6.887  21.864   7.822
 H   16.947  27.858  -1.864
 H   19.060  27.284   1.155
 H   20.034  26.347   3.290
 H   18.824  23.654   3.449
 H   20.197  21.395   2.443
 H   20.727  18.956   0.786
 H   16.715  17.829  -3.624
 H   13.269  17.060  -5.239
}

set {
basis cc-pvtz
scf_type df
guess sad
DF_SCF_TYPE DFJK
}

energy('HF')
--------------------------------------------------------------------------

  Memory set to  55.879 GiB by Python driver.

*** tstart() called on hex15
*** at Sun Mar  4 12:52:26 2018

   => Loading Basis Set <=

    Name: CC-PVTZ
    Role: ORBITAL
    Keyword: BASIS
    atoms 1, 9, 13, 21, 25, 33                                             entry N          line   224 file /theoryfs2/ds/schieber/Gits/mspsi4/objdir3/stage/usr/local/psi4/share/psi4/basis/cc-pvtz.gbs 
    atoms 2-3, 5-6, 10-11, 14-15, 17-18, 22-23, 26-27, 29-30, 34-35, 37-39 entry C          line   186 file /theoryfs2/ds/schieber/Gits/mspsi4/objdir3/stage/usr/local/psi4/share/psi4/basis/cc-pvtz.gbs 
    atoms 4, 7-8, 12, 16, 19-20, 24, 28, 31-32, 36                         entry O          line   262 file /theoryfs2/ds/schieber/Gits/mspsi4/objdir3/stage/usr/local/psi4/share/psi4/basis/cc-pvtz.gbs 
    atoms 40-81                                                            entry H          line    23 file /theoryfs2/ds/schieber/Gits/mspsi4/objdir3/stage/usr/local/psi4/share/psi4/basis/cc-pvtz.gbs 


         ---------------------------------------------------------
                                   SCF
            by Justin Turney, Rob Parrish, Andy Simmonett
                             and Daniel Smith
                              RHF Reference
                        6 Threads,  57220 MiB Core
         ---------------------------------------------------------

  ==> Geometry <==

    Molecular point group: c1
    Full point group: C1

    Geometry (in Angstrom), charge = 0, multiplicity = 1:

       Center              X                  Y                   Z               Mass       
    ------------   -----------------  -----------------  -----------------  -----------------
           N          2.162085654028     7.131922671342     3.830998506539    14.003074004780
           C          1.389085654028     6.203922671342     3.040998506539    12.000000000000
           C          0.481085654028     6.979922671342     2.089998506539    12.000000000000
           O         -0.620914345972     7.365922671342     2.440998506539    15.994914619560
           C          0.583085654028     5.329922671342     4.014998506539    12.000000000000
           C         -0.147914345972     4.200922671342     3.349998506539    12.000000000000
           O         -0.227914345972     4.145922671342     2.108998506539    15.994914619560
           O         -0.701914345972     3.383922671342     4.085998506539    15.994914619560
           N        -11.896914345972     0.729922671342     5.998998506539    14.003074004780
           C        -11.577914345972    -0.535077328658     5.348998506539    12.000000000000
           C        -10.198914345972    -0.592077328658     4.724998506539    12.000000000000
           O         -9.740914345972     0.376922671342     4.103998506539    15.994914619560
           N          0.943085654028     3.741922671342    -4.233001493461    14.003074004780
           C          0.763085654028     3.438922671342    -2.822001493461    12.000000000000
           C          2.091085654028     3.133922671342    -2.143001493461    12.000000000000
           O          2.539085654028     1.996922671342    -2.104001493461    15.994914619560
           C         -0.205914345972     2.259922671342    -2.712001493461    12.000000000000
           C         -0.704914345972     2.023922671342    -1.303001493461    12.000000000000
           O         -0.064914345972     2.467922671342    -0.343001493461    15.994914619560
           O         -1.732914345972     1.362922671342    -1.151001493461    15.994914619560
           N          2.642085654028     2.886922671342     0.891998506539    14.003074004780
           C          2.493085654028     2.059922671342     2.079998506539    12.000000000000
           C          2.381085654028     0.590922671342     1.723998506539    12.000000000000
           O          2.196085654028    -0.258077328658     2.620998506539    15.994914619560
           N          4.072085654028    -2.753077328658     0.121998506539    14.003074004780
           C          5.315085654028    -3.400077328658    -0.300001493461    12.000000000000
           C          5.229085654028    -3.938077328658    -1.689001493461    12.000000000000
           O          6.178085654028    -3.810077328658    -2.435001493461    15.994914619560
           C          5.705085654028    -4.485077328658     0.650998506539    12.000000000000
           C          5.808085654028    -3.975077328658     2.047998506539    12.000000000000
           O          6.250085654028    -2.830077328658     2.232998506539    15.994914619560
           O          5.372085654028    -4.665077328658     2.981998506539    15.994914619560
           N         -0.713914345972    -5.210077328658    -6.236001493461    14.003074004780
           C         -1.835914345972    -6.150077328658    -6.310001493461    12.000000000000
           C         -2.845914345972    -5.586077328658    -7.232001493461    12.000000000000
           O         -3.294914345972    -4.451077328658    -7.059001493461    15.994914619560
           C         -2.682914345972    -6.307077328658    -5.041001493461    12.000000000000
           C         -3.166914345972    -7.720077328658    -4.980001493461    12.000000000000
           C         -1.945914345972    -5.857077328658    -3.803001493461    12.000000000000
           H          1.716085654028     7.677922671342     4.498998506539     1.007825032070
           H          2.046085654028     5.522922671342     2.452998506539     1.007825032070
           H         -0.127914345972     5.963922671342     4.580998506539     1.007825032070
           H          1.314085654028     4.873922671342     4.719998506539     1.007825032070
           H         -0.618914345972     3.389922671342     5.046998506539     1.007825032070
           H        -12.027914345972     1.558922671342     5.398998506539     1.007825032070
           H        -11.719914345972    -1.382077328658     6.005998506539     1.007825032070
           H        -12.320914345972    -0.680077328658     4.538998506539     1.007825032070
           H          1.396085654028     3.108922671342    -4.819001493461     1.007825032070
           H          0.260085654028     4.282922671342    -2.296001493461     1.007825032070
           H          0.260085654028     1.350922671342    -3.133001493461     1.007825032070
           H         -1.100914345972     2.532922671342    -3.315001493461     1.007825032070
           H          0.273085654028     1.858922671342     0.312998506539     1.007825032070
           H          1.850085654028     3.458922671342     0.580998506539     1.007825032070
           H          1.551085654028     2.318922671342     2.594998506539     1.007825032070
           H          3.328085654028     2.254922671342     2.780998506539     1.007825032070
           H          3.512085654028    -3.239077328658     0.800998506539     1.007825032070
           H          6.138085654028    -2.648077328658    -0.259001493461     1.007825032070
           H          6.711085654028    -4.853077328658     0.347998506539     1.007825032070
           H          5.001085654028    -5.346077328658     0.595998506539     1.007825032070
           H          5.028085654028    -5.560077328658     2.837998506539     1.007825032070
           H         -0.922914345972    -4.247077328658    -5.968001493461     1.007825032070
           H         -1.452914345972    -7.132077328658    -6.632001493461     1.007825032070
           H         -3.577914345972    -5.638077328658    -4.999001493461     1.007825032070
           H         -2.348914345972    -8.440077328658    -4.842001493461     1.007825032070
           H         -3.757914345972    -7.989077328658    -5.882001493461     1.007825032070
           H         -3.839914345972    -7.834077328658    -4.103001493461     1.007825032070
           H         -1.058914345972    -6.513077328658    -3.732001493461     1.007825032070
           H         -2.577914345972    -5.996077328658    -2.899001493461     1.007825032070
           H         -1.650914345972    -4.790077328658    -3.864001493461     1.007825032070
           H          3.182085654028     7.106922671342     3.822998506539     1.007825032070
           H          0.831085654028     7.102922671342     1.053998506539     1.007825032070
           H        -12.009914345972     0.804922671342     7.009998506539     1.007825032070
           H         -9.576914345972    -1.448077328658     5.025998506539     1.007825032070
           H          0.483085654028     4.545922671342    -4.660001493461     1.007825032070
           H          2.596085654028     3.971922671342    -1.641001493461     1.007825032070
           H          3.570085654028     3.034922671342     0.493998506539     1.007825032070
           H          2.360085654028     0.341922671342     0.652998506539     1.007825032070
           H          3.733085654028    -1.917077328658    -0.353001493461     1.007825032070
           H          4.263085654028    -4.356077328658    -2.010001493461     1.007825032070
           H          0.251085654028    -5.483077328658    -6.420001493461     1.007825032070
           H         -3.194914345972    -6.252077328658    -8.035001493461     1.007825032070

  Running in c1 symmetry.

  Rotational constants: A =      0.00108  B =      0.00092  C =      0.00065 [cm^-1]
  Rotational constants: A =     32.29472  B =     27.57633  C =     19.58821 [MHz]
  Nuclear repulsion = 3942.786577156039129

  Charge       = 0
  Multiplicity = 1
  Electrons    = 306
  Nalpha       = 153
  Nbeta        = 153

  ==> Algorithm <==

  SCF Algorithm Type is DF.
  DIIS enabled.
  MOM disabled.
  Fractional occupation disabled.
  Guess Type is SAD.
  Energy threshold   = 1.00e-06
  Density threshold  = 1.00e-06
  Integral threshold = 0.00e+00

  ==> Primary Basis <==

  Basis Set: CC-PVTZ
    Blend: CC-PVTZ
    Number of shells: 642
    Number of basis function: 1758
    Number of Cartesian functions: 1995
    Spherical Harmonics?: true
    Max angular momentum: 3

   => Loading Basis Set <=

    Name: (CC-PVTZ AUX)
    Role: JKFIT
    Keyword: DF_BASIS_SCF
    atoms 1, 9, 13, 21, 25, 33                                             entry N          line   177 file /theoryfs2/ds/schieber/Gits/mspsi4/objdir3/stage/usr/local/psi4/share/psi4/basis/cc-pvtz-jkfit.gbs 
    atoms 2-3, 5-6, 10-11, 14-15, 17-18, 22-23, 26-27, 29-30, 34-35, 37-39 entry C          line   125 file /theoryfs2/ds/schieber/Gits/mspsi4/objdir3/stage/usr/local/psi4/share/psi4/basis/cc-pvtz-jkfit.gbs 
    atoms 4, 7-8, 12, 16, 19-20, 24, 28, 31-32, 36                         entry O          line   229 file /theoryfs2/ds/schieber/Gits/mspsi4/objdir3/stage/usr/local/psi4/share/psi4/basis/cc-pvtz-jkfit.gbs 
    atoms 40-81                                                            entry H          line    51 file /theoryfs2/ds/schieber/Gits/mspsi4/objdir3/stage/usr/local/psi4/share/psi4/basis/cc-pvtz-jkfit.gbs 

  ==> Pre-Iterations <==

   -------------------------------------------------------
    Irrep   Nso     Nmo     Nalpha   Nbeta   Ndocc  Nsocc
   -------------------------------------------------------
     A       1758    1758       0       0       0       0
   -------------------------------------------------------
    Total    1758    1758     153     153     153       0
   -------------------------------------------------------

  ==> Integral Setup <==

  ==> DFJK: Density-Fitted J/K Matrices <==

    J tasked:                  Yes
    K tasked:                  Yes
    wK tasked:                  No
    OpenMP threads:              6
    Integrals threads:           6
    Memory (MB):             42915
    Algorithm:                Core
    Integral Cache:           NONE
    Schwarz Cutoff:          1E-12
    Fitting Condition:       1E-12

   => Auxiliary Basis Set <=

  Basis Set: (CC-PVTZ AUX)
    Blend: CC-PVTZ-JKFIT
    Number of shells: 1395
    Number of basis function: 4341
    Number of Cartesian functions: 5214
    Spherical Harmonics?: true
    Max angular momentum: 4

  Minimum eigenvalue in the overlap matrix is 2.2491206881E-04.
  Using Symmetric Orthogonalization.

  SCF Guess: Superposition of Atomic Densities via on-the-fly atomic UHF.

  ==> Iterations <==

                           Total Energy        Delta E     RMS |[F,P]|

   @DF-RHF iter   0: -2058.17023975141137   -2.05817e+03   1.54555e-02 
   @DF-RHF iter   1: -2043.99797581830921    1.41723e+01   1.94169e-03 
   @DF-RHF iter   2: -2044.86848884583060   -8.70513e-01   1.27477e-03 DIIS
   @DF-RHF iter   3: -2045.19040907357089   -3.21920e-01   3.34459e-04 DIIS
   @DF-RHF iter   4: -2045.23601612385346   -4.56071e-02   1.07918e-04 DIIS
   @DF-RHF iter   5: -2045.24222464083527   -6.20852e-03   4.45371e-05 DIIS
   @DF-RHF iter   6: -2045.24397278323318   -1.74814e-03   2.12706e-05 DIIS
   @DF-RHF iter   7: -2045.24446773838281   -4.94955e-04   9.51579e-06 DIIS
   @DF-RHF iter   8: -2045.24457177310774   -1.04035e-04   4.84852e-06 DIIS
   @DF-RHF iter   9: -2045.24459897614724   -2.72030e-05   2.17477e-06 DIIS
   @DF-RHF iter  10: -2045.24460574388127   -6.76773e-06   9.80904e-07 DIIS
   @DF-RHF iter  11: -2045.24460720422690   -1.46035e-06   3.87360e-07 DIIS
   @DF-RHF iter  12: -2045.24460741213875   -2.07912e-07   1.59082e-07 DIIS

  ==> Post-Iterations <==

    Orbital Energies (a.u.)
    -----------------------

    Doubly Occupied:                                                      

       1A    -20.641241     2A    -20.633961     3A    -20.599392  
       4A    -20.564740     5A    -20.556645     6A    -20.556463  
       7A    -20.554919     8A    -20.551483     9A    -20.543219  
      10A    -20.535785    11A    -20.517154    12A    -20.510073  
      13A    -15.553088    14A    -15.545910    15A    -15.545466  
      16A    -15.540001    17A    -15.537602    18A    -15.532604  
      19A    -11.392902    20A    -11.380456    21A    -11.361352  
      22A    -11.341192    23A    -11.333952    24A    -11.332797  
      25A    -11.327694    26A    -11.325013    27A    -11.322785  
      28A    -11.293325    29A    -11.286762    30A    -11.278718  
      31A    -11.274577    32A    -11.270819    33A    -11.268195  
      34A    -11.264344    35A    -11.261563    36A    -11.234675  
      37A    -11.222982    38A    -11.221389    39A    -11.210578  
      40A     -1.524468    41A     -1.510760    42A     -1.495153  
      43A     -1.394064    44A     -1.390824    45A     -1.388172  
      46A     -1.370374    47A     -1.366567    48A     -1.364750  
      49A     -1.353595    50A     -1.337434    51A     -1.327913  
      52A     -1.209965    53A     -1.197730    54A     -1.191171  
      55A     -1.182064    56A     -1.177952    57A     -1.164609  
      58A     -1.077035    59A     -1.053867    60A     -1.052260  
      61A     -1.039425    62A     -0.963585    63A     -0.961709  
      64A     -0.961152    65A     -0.946492    66A     -0.938585  
      67A     -0.933425    68A     -0.927481    69A     -0.903014  
      70A     -0.888614    71A     -0.871049    72A     -0.807073  
      73A     -0.804222    74A     -0.799328    75A     -0.797318  
      76A     -0.791801    77A     -0.791041    78A     -0.757823  
      79A     -0.744074    80A     -0.731894    81A     -0.727792  
      82A     -0.715136    83A     -0.709926    84A     -0.705039  
      85A     -0.702360    86A     -0.694977    87A     -0.691191  
      88A     -0.689402    89A     -0.684388    90A     -0.681669  
      91A     -0.677662    92A     -0.664225    93A     -0.662672  
      94A     -0.658235    95A     -0.655917    96A     -0.655145  
      97A     -0.649483    98A     -0.646558    99A     -0.645059  
     100A     -0.639480   101A     -0.633081   102A     -0.632678  
     103A     -0.627620   104A     -0.626551   105A     -0.625361  
     106A     -0.622258   107A     -0.620703   108A     -0.618325  
     109A     -0.608363   110A     -0.605144   111A     -0.599227  
     112A     -0.587067   113A     -0.574264   114A     -0.570141  
     115A     -0.565447   116A     -0.564815   117A     -0.558893  
     118A     -0.554673   119A     -0.547950   120A     -0.545495  
     121A     -0.545488   122A     -0.531666   123A     -0.528225  
     124A     -0.526461   125A     -0.523910   126A     -0.517957  
     127A     -0.517265   128A     -0.511561   129A     -0.502063  
     130A     -0.499627   131A     -0.485741   132A     -0.484673  
     133A     -0.483695   134A     -0.473459   135A     -0.470280  
     136A     -0.458352   137A     -0.457091   138A     -0.452303  
     139A     -0.444223   140A     -0.442909   141A     -0.441073  
     142A     -0.440321   143A     -0.438260   144A     -0.436865  
     145A     -0.431066   146A     -0.430704   147A     -0.426631  
     148A     -0.382971   149A     -0.378841   150A     -0.374393  
     151A     -0.373613   152A     -0.365984   153A     -0.356931  

    Virtual:                                                              

     154A      0.101714   155A      0.104974   156A      0.105049  
     157A      0.112494   158A      0.114058   159A      0.117166  
     160A      0.120300   161A      0.124107   162A      0.125974  
     163A      0.133388   164A      0.144128   165A      0.146240  
     166A      0.147068   167A      0.152472   168A      0.155429  
     169A      0.159455   170A      0.160004   171A      0.161239  
     172A      0.161914   173A      0.165501   174A      0.167010  
     175A      0.169402   176A      0.174106   177A      0.177384  
     178A      0.180527   179A      0.181708   180A      0.186717  
     181A      0.192006   182A      0.195770   183A      0.198442  
     184A      0.198463   185A      0.202915   186A      0.205020  
     187A      0.206292   188A      0.208572   189A      0.215191  
     190A      0.221912   191A      0.223214   192A      0.224022  
     193A      0.227037   194A      0.229302   195A      0.234938  
     196A      0.238007   197A      0.242678   198A      0.243064  
     199A      0.249416   200A      0.262043   201A      0.267421  
     202A      0.276780   203A      0.283610   204A      0.284146  
     205A      0.290733   206A      0.300720   207A      0.306477  
     208A      0.310032   209A      0.312046   210A      0.315890  
     211A      0.321234   212A      0.329709   213A      0.336491  
     214A      0.336918   215A      0.343592   216A      0.345172  
     217A      0.350116   218A      0.352244   219A      0.354118  
     220A      0.356667   221A      0.357855   222A      0.360350  
     223A      0.360918   224A      0.363092   225A      0.371715  
     226A      0.376552   227A      0.382287   228A      0.385323  
     229A      0.390785   230A      0.391081   231A      0.404055  
     232A      0.405102   233A      0.409032   234A      0.409510  
     235A      0.415838   236A      0.419478   237A      0.422875  
     238A      0.428162   239A      0.432663   240A      0.436469  
     241A      0.442741   242A      0.451810   243A      0.453116  
     244A      0.455755   245A      0.462970   246A      0.464600  
     247A      0.466260   248A      0.467624   249A      0.468241  
     250A      0.472334   251A      0.476661   252A      0.478896  
     253A      0.483565   254A      0.484080   255A      0.485318  
     256A      0.495828   257A      0.496280   258A      0.497196  
     259A      0.498191   260A      0.502378   261A      0.509482  
     262A      0.511734   263A      0.515437   264A      0.518581  
     265A      0.520073   266A      0.524493   267A      0.528891  
     268A      0.535111   269A      0.536727   270A      0.543921  
     271A      0.546308   272A      0.548677   273A      0.551131  
     274A      0.552387   275A      0.554612   276A      0.560020  
     277A      0.564071   278A      0.564785   279A      0.566785  
     280A      0.567183   281A      0.568143   282A      0.571676  
     283A      0.572095   284A      0.574958   285A      0.577238  
     286A      0.579483   287A      0.582743   288A      0.585307  
     289A      0.588974   290A      0.590009   291A      0.590897  
     292A      0.595863   293A      0.596110   294A      0.599576  
     295A      0.600289   296A      0.603136   297A      0.604306  
     298A      0.609134   299A      0.611225   300A      0.612675  
     301A      0.617946   302A      0.622363   303A      0.623553  
     304A      0.624438   305A      0.629376   306A      0.629719  
     307A      0.630020   308A      0.630820   309A      0.632829  
     310A      0.635076   311A      0.637054   312A      0.637866  
     313A      0.641389   314A      0.645424   315A      0.646217  
     316A      0.648548   317A      0.650152   318A      0.653787  
     319A      0.654836   320A      0.656561   321A      0.661244  
     322A      0.661305   323A      0.662955   324A      0.664545  
     325A      0.672715   326A      0.673955   327A      0.675298  
     328A      0.676213   329A      0.681507   330A      0.686578  
     331A      0.686998   332A      0.687661   333A      0.690658  
     334A      0.694006   335A      0.696356   336A      0.699596  
     337A      0.703138   338A      0.704244   339A      0.707603  
     340A      0.709382   341A      0.711556   342A      0.712276  
     343A      0.714477   344A      0.721668   345A      0.721766  
     346A      0.722422   347A      0.726159   348A      0.728920  
     349A      0.729641   350A      0.731876   351A      0.737366  
     352A      0.741904   353A      0.743964   354A      0.746027  
     355A      0.749728   356A      0.750617   357A      0.751731  
     358A      0.752413   359A      0.753433   360A      0.759793  
     361A      0.766332   362A      0.767668   363A      0.772071  
     364A      0.774959   365A      0.777594   366A      0.782549  
     367A      0.787133   368A      0.788729   369A      0.789636  
     370A      0.791794   371A      0.793110   372A      0.797283  
     373A      0.799456   374A      0.803565   375A      0.804195  
     376A      0.807433   377A      0.810208   378A      0.816397  
     379A      0.817530   380A      0.830869   381A      0.833415  
     382A      0.839601   383A      0.843992   384A      0.845308  
     385A      0.848383   386A      0.849355   387A      0.851584  
     388A      0.855903   389A      0.858412   390A      0.864563  
     391A      0.870218   392A      0.872506   393A      0.879131  
     394A      0.881539   395A      0.884709   396A      0.891162  
     397A      0.894639   398A      0.899019   399A      0.902092  
     400A      0.902790   401A      0.912472   402A      0.912959  
     403A      0.914113   404A      0.915359   405A      0.921890  
     406A      0.922426   407A      0.926971   408A      0.936707  
     409A      0.937059   410A      0.940716   411A      0.942626  
     412A      0.943164   413A      0.946779   414A      0.949496  
     415A      0.953857   416A      0.960065   417A      0.963687  
     418A      0.964060   419A      0.967452   420A      0.971080  
     421A      0.973208   422A      0.976681   423A      0.979118  
     424A      0.984667   425A      0.988441   426A      0.991231  
     427A      0.998770   428A      1.001082   429A      1.004392  
     430A      1.007563   431A      1.011020   432A      1.018575  
     433A      1.021640   434A      1.030020   435A      1.031047  
     436A      1.036418   437A      1.038382   438A      1.048796  
     439A      1.049584   440A      1.052508   441A      1.054981  
     442A      1.061241   443A      1.062622   444A      1.062946  
     445A      1.065853   446A      1.069165   447A      1.084169  
     448A      1.086159   449A      1.087626   450A      1.089699  
     451A      1.093051   452A      1.101613   453A      1.104546  
     454A      1.107771   455A      1.109145   456A      1.120910  
     457A      1.123828   458A      1.124459   459A      1.127184  
     460A      1.131228   461A      1.132747   462A      1.132777  
     463A      1.136314   464A      1.141453   465A      1.145878  
     466A      1.150147   467A      1.154704   468A      1.156763  
     469A      1.161144   470A      1.163600   471A      1.173393  
     472A      1.175523   473A      1.183157   474A      1.186385  
     475A      1.189729   476A      1.195469   477A      1.195496  
     478A      1.198737   479A      1.200485   480A      1.202775  
     481A      1.208415   482A      1.209728   483A      1.210195  
     484A      1.213655   485A      1.218294   486A      1.219808  
     487A      1.226011   488A      1.226245   489A      1.233486  
     490A      1.234774   491A      1.236289   492A      1.238760  
     493A      1.246469   494A      1.247010   495A      1.251671  
     496A      1.256182   497A      1.257502   498A      1.259813  
     499A      1.263434   500A      1.265133   501A      1.270432  
     502A      1.277329   503A      1.280627   504A      1.281404  
     505A      1.282773   506A      1.285120   507A      1.286643  
     508A      1.297296   509A      1.299427   510A      1.302429  
     511A      1.304529   512A      1.309616   513A      1.311532  
     514A      1.314210   515A      1.317336   516A      1.318170  
     517A      1.322574   518A      1.323798   519A      1.328933  
     520A      1.332105   521A      1.335992   522A      1.340863  
     523A      1.343658   524A      1.346391   525A      1.347332  
     526A      1.349393   527A      1.349452   528A      1.352419  
     529A      1.358012   530A      1.359165   531A      1.361497  
     532A      1.363742   533A      1.374049   534A      1.377659  
     535A      1.380330   536A      1.383249   537A      1.386568  
     538A      1.390473   539A      1.395424   540A      1.397828  
     541A      1.400695   542A      1.402741   543A      1.410576  
     544A      1.414268   545A      1.416194   546A      1.416773  
     547A      1.420952   548A      1.423285   549A      1.430717  
     550A      1.432619   551A      1.437762   552A      1.440176  
     553A      1.442781   554A      1.448777   555A      1.451137  
     556A      1.451989   557A      1.452667   558A      1.457033  
     559A      1.463312   560A      1.469276   561A      1.472477  
     562A      1.476971   563A      1.483335   564A      1.486117  
     565A      1.488061   566A      1.491110   567A      1.491398  
     568A      1.494370   569A      1.497121   570A      1.504188  
     571A      1.506734   572A      1.515145   573A      1.515459  
     574A      1.517417   575A      1.519040   576A      1.522431  
     577A      1.524305   578A      1.527740   579A      1.528028  
     580A      1.531176   581A      1.535800   582A      1.541153  
     583A      1.552280   584A      1.556336   585A      1.559784  
     586A      1.564447   587A      1.569056   588A      1.573045  
     589A      1.575589   590A      1.578948   591A      1.584418  
     592A      1.588402   593A      1.590110   594A      1.590695  
     595A      1.596266   596A      1.597431   597A      1.598637  
     598A      1.603872   599A      1.606039   600A      1.608790  
     601A      1.611497   602A      1.615270   603A      1.620933  
     604A      1.622321   605A      1.625386   606A      1.627468  
     607A      1.632205   608A      1.634681   609A      1.640669  
     610A      1.643368   611A      1.648646   612A      1.650568  
     613A      1.653523   614A      1.658219   615A      1.660242  
     616A      1.661882   617A      1.664111   618A      1.670767  
     619A      1.671105   620A      1.673501   621A      1.677760  
     622A      1.687787   623A      1.693799   624A      1.695234  
     625A      1.703076   626A      1.708139   627A      1.711851  
     628A      1.712232   629A      1.722553   630A      1.724218  
     631A      1.727298   632A      1.730311   633A      1.736165  
     634A      1.736483   635A      1.747318   636A      1.752122  
     637A      1.754630   638A      1.756092   639A      1.761731  
     640A      1.762138   641A      1.767276   642A      1.772453  
     643A      1.781645   644A      1.783791   645A      1.791165  
     646A      1.796193   647A      1.797852   648A      1.808609  
     649A      1.818183   650A      1.818984   651A      1.826602  
     652A      1.833069   653A      1.836126   654A      1.839642  
     655A      1.855144   656A      1.856006   657A      1.863935  
     658A      1.866036   659A      1.889686   660A      1.893964  
     661A      1.908180   662A      1.910406   663A      1.915351  
     664A      1.915757   665A      1.924163   666A      1.928087  
     667A      1.932857   668A      1.936106   669A      1.939045  
     670A      1.941644   671A      1.948412   672A      1.952585  
     673A      1.955827   674A      1.962488   675A      1.963890  
     676A      1.965685   677A      1.966318   678A      1.974516  
     679A      1.979974   680A      1.992200   681A      1.992884  
     682A      1.995686   683A      1.999499   684A      2.004070  
     685A      2.007709   686A      2.008251   687A      2.014405  
     688A      2.017193   689A      2.021575   690A      2.025448  
     691A      2.025491   692A      2.038211   693A      2.039072  
     694A      2.042317   695A      2.058634   696A      2.061383  
     697A      2.066181   698A      2.069666   699A      2.081843  
     700A      2.083239   701A      2.088982   702A      2.102374  
     703A      2.106078   704A      2.114110   705A      2.120889  
     706A      2.136399   707A      2.141012   708A      2.148940  
     709A      2.151648   710A      2.158661   711A      2.171030  
     712A      2.172459   713A      2.181546   714A      2.226188  
     715A      2.228006   716A      2.260933   717A      2.270454  
     718A      2.272620   719A      2.277505   720A      2.284912  
     721A      2.289424   722A      2.298378   723A      2.299684  
     724A      2.318176   725A      2.322153   726A      2.325491  
     727A      2.340264   728A      2.356387   729A      2.362033  
     730A      2.366106   731A      2.369168   732A      2.380460  
     733A      2.389426   734A      2.390025   735A      2.393852  
     736A      2.397917   737A      2.404003   738A      2.410405  
     739A      2.429848   740A      2.433171   741A      2.434747  
     742A      2.436053   743A      2.437577   744A      2.456088  
     745A      2.461414   746A      2.468895   747A      2.470405  
     748A      2.472985   749A      2.476875   750A      2.481845  
     751A      2.483168   752A      2.490065   753A      2.498762  
     754A      2.499751   755A      2.505910   756A      2.513733  
     757A      2.517325   758A      2.528506   759A      2.541053  
     760A      2.543017   761A      2.545656   762A      2.556218  
     763A      2.568759   764A      2.580399   765A      2.588568  
     766A      2.609736   767A      2.610806   768A      2.622617  
     769A      2.632657   770A      2.638759   771A      2.647250  
     772A      2.658484   773A      2.661906   774A      2.666019  
     775A      2.668470   776A      2.686864   777A      2.694060  
     778A      2.702655   779A      2.703164   780A      2.703579  
     781A      2.715481   782A      2.730823   783A      2.734080  
     784A      2.742585   785A      2.743195   786A      2.743678  
     787A      2.764090   788A      2.764880   789A      2.769447  
     790A      2.771542   791A      2.777570   792A      2.781029  
     793A      2.783926   794A      2.787134   795A      2.788890  
     796A      2.795533   797A      2.799323   798A      2.810610  
     799A      2.818464   800A      2.818793   801A      2.824462  
     802A      2.838363   803A      2.846563   804A      2.849453  
     805A      2.854030   806A      2.856886   807A      2.862932  
     808A      2.866856   809A      2.867104   810A      2.868407  
     811A      2.872438   812A      2.875125   813A      2.887309  
     814A      2.894323   815A      2.896267   816A      2.900867  
     817A      2.905376   818A      2.907830   819A      2.908102  
     820A      2.921581   821A      2.925252   822A      2.927604  
     823A      2.930520   824A      2.934162   825A      2.940089  
     826A      2.941712   827A      2.942974   828A      2.949477  
     829A      2.953895   830A      2.958031   831A      2.961294  
     832A      2.966778   833A      2.974247   834A      2.975210  
     835A      2.978027   836A      2.979782   837A      2.980456  
     838A      2.991039   839A      2.993557   840A      2.999983  
     841A      3.004430   842A      3.007451   843A      3.013894  
     844A      3.014037   845A      3.020981   846A      3.021396  
     847A      3.022607   848A      3.025670   849A      3.029619  
     850A      3.038589   851A      3.043761   852A      3.046769  
     853A      3.050349   854A      3.052032   855A      3.066803  
     856A      3.069538   857A      3.073857   858A      3.077621  
     859A      3.080772   860A      3.081769   861A      3.086543  
     862A      3.087813   863A      3.089730   864A      3.103070  
     865A      3.113705   866A      3.114320   867A      3.117614  
     868A      3.131827   869A      3.133584   870A      3.138541  
     871A      3.144546   872A      3.146483   873A      3.147953  
     874A      3.155924   875A      3.162963   876A      3.164582  
     877A      3.167805   878A      3.171482   879A      3.173487  
     880A      3.175361   881A      3.183088   882A      3.188371  
     883A      3.194779   884A      3.196676   885A      3.198553  
     886A      3.200499   887A      3.203248   888A      3.205014  
     889A      3.208889   890A      3.212314   891A      3.217314  
     892A      3.223519   893A      3.226033   894A      3.231394  
     895A      3.232878   896A      3.240387   897A      3.244838  
     898A      3.248585   899A      3.249909   900A      3.254950  
     901A      3.258725   902A      3.262665   903A      3.265584  
     904A      3.267161   905A      3.268030   906A      3.274666  
     907A      3.279100   908A      3.285453   909A      3.287653  
     910A      3.289909   911A      3.291907   912A      3.295000  
     913A      3.296454   914A      3.299235   915A      3.305638  
     916A      3.308751   917A      3.312076   918A      3.312739  
     919A      3.320147   920A      3.322026   921A      3.323125  
     922A      3.325076   923A      3.326778   924A      3.326908  
     925A      3.335755   926A      3.336304   927A      3.337513  
     928A      3.338615   929A      3.349241   930A      3.349791  
     931A      3.352076   932A      3.356889   933A      3.360044  
     934A      3.363708   935A      3.364828   936A      3.371622  
     937A      3.375680   938A      3.378907   939A      3.380326  
     940A      3.385448   941A      3.390783   942A      3.392291  
     943A      3.399596   944A      3.401837   945A      3.402476  
     946A      3.402689   947A      3.405529   948A      3.406876  
     949A      3.409097   950A      3.417246   951A      3.420200  
     952A      3.420726   953A      3.425155   954A      3.427397  
     955A      3.432586   956A      3.434066   957A      3.439148  
     958A      3.441932   959A      3.443278   960A      3.446101  
     961A      3.448362   962A      3.450379   963A      3.451130  
     964A      3.456696   965A      3.458545   966A      3.463022  
     967A      3.464826   968A      3.466299   969A      3.469903  
     970A      3.472203   971A      3.475344   972A      3.477597  
     973A      3.479205   974A      3.480977   975A      3.484008  
     976A      3.484164   977A      3.494436   978A      3.494930  
     979A      3.495373   980A      3.498258   981A      3.500100  
     982A      3.500857   983A      3.503453   984A      3.504063  
     985A      3.508125   986A      3.511319   987A      3.514463  
     988A      3.515356   989A      3.525545   990A      3.527416  
     991A      3.529408   992A      3.530564   993A      3.532216  
     994A      3.533847   995A      3.540166   996A      3.544065  
     997A      3.550210   998A      3.555829   999A      3.557294  
    1000A      3.557815  1001A      3.558687  1002A      3.559030  
    1003A      3.569543  1004A      3.574137  1005A      3.580872  
    1006A      3.581548  1007A      3.590646  1008A      3.591487  
    1009A      3.593672  1010A      3.601152  1011A      3.604224  
    1012A      3.609758  1013A      3.610373  1014A      3.612608  
    1015A      3.615711  1016A      3.616720  1017A      3.625015  
    1018A      3.626357  1019A      3.636944  1020A      3.637723  
    1021A      3.640780  1022A      3.651059  1023A      3.651222  
    1024A      3.653176  1025A      3.657802  1026A      3.657863  
    1027A      3.659678  1028A      3.665714  1029A      3.668741  
    1030A      3.671533  1031A      3.673543  1032A      3.683025  
    1033A      3.685644  1034A      3.690013  1035A      3.690886  
    1036A      3.693123  1037A      3.697154  1038A      3.698928  
    1039A      3.706727  1040A      3.711610  1041A      3.713896  
    1042A      3.715313  1043A      3.717470  1044A      3.719574  
    1045A      3.720023  1046A      3.722440  1047A      3.725252  
    1048A      3.734166  1049A      3.735168  1050A      3.738914  
    1051A      3.743452  1052A      3.748776  1053A      3.752004  
    1054A      3.753847  1055A      3.756233  1056A      3.761426  
    1057A      3.767916  1058A      3.769445  1059A      3.772890  
    1060A      3.778688  1061A      3.780636  1062A      3.792389  
    1063A      3.797281  1064A      3.801072  1065A      3.802588  
    1066A      3.804315  1067A      3.805754  1068A      3.807772  
    1069A      3.818408  1070A      3.826975  1071A      3.830345  
    1072A      3.830564  1073A      3.832508  1074A      3.839009  
    1075A      3.841001  1076A      3.842664  1077A      3.844695  
    1078A      3.849283  1079A      3.849474  1080A      3.850747  
    1081A      3.851126  1082A      3.851931  1083A      3.855242  
    1084A      3.859796  1085A      3.860821  1086A      3.868273  
    1087A      3.872137  1088A      3.878534  1089A      3.879377  
    1090A      3.889058  1091A      3.891235  1092A      3.895932  
    1093A      3.896589  1094A      3.904451  1095A      3.908533  
    1096A      3.911477  1097A      3.916950  1098A      3.917478  
    1099A      3.918647  1100A      3.921874  1101A      3.924932  
    1102A      3.929688  1103A      3.934153  1104A      3.936784  
    1105A      3.937469  1106A      3.941938  1107A      3.943589  
    1108A      3.945661  1109A      3.953108  1110A      3.955793  
    1111A      3.959728  1112A      3.961308  1113A      3.963485  
    1114A      3.968280  1115A      3.971932  1116A      3.976983  
    1117A      3.983971  1118A      3.986384  1119A      3.994417  
    1120A      3.996180  1121A      3.999266  1122A      3.999938  
    1123A      4.013432  1124A      4.014215  1125A      4.015661  
    1126A      4.022957  1127A      4.024914  1128A      4.029753  
    1129A      4.030112  1130A      4.031398  1131A      4.039547  
    1132A      4.050192  1133A      4.051903  1134A      4.053403  
    1135A      4.053717  1136A      4.057033  1137A      4.067483  
    1138A      4.068197  1139A      4.078771  1140A      4.079596  
    1141A      4.085096  1142A      4.086913  1143A      4.091813  
    1144A      4.092849  1145A      4.094087  1146A      4.106935  
    1147A      4.113766  1148A      4.120348  1149A      4.120756  
    1150A      4.122354  1151A      4.123814  1152A      4.125730  
    1153A      4.127518  1154A      4.136010  1155A      4.137355  
    1156A      4.140918  1157A      4.142892  1158A      4.149965  
    1159A      4.151095  1160A      4.155474  1161A      4.157517  
    1162A      4.159206  1163A      4.165281  1164A      4.166119  
    1165A      4.170405  1166A      4.172794  1167A      4.173286  
    1168A      4.175229  1169A      4.175409  1170A      4.176837  
    1171A      4.183860  1172A      4.190331  1173A      4.198027  
    1174A      4.199991  1175A      4.200155  1176A      4.203126  
    1177A      4.206116  1178A      4.208887  1179A      4.209985  
    1180A      4.215156  1181A      4.218625  1182A      4.220572  
    1183A      4.225180  1184A      4.226529  1185A      4.233952  
    1186A      4.242667  1187A      4.245321  1188A      4.257502  
    1189A      4.261630  1190A      4.263917  1191A      4.267306  
    1192A      4.267876  1193A      4.270662  1194A      4.272946  
    1195A      4.274816  1196A      4.276394  1197A      4.283090  
    1198A      4.287698  1199A      4.287940  1200A      4.292458  
    1201A      4.294180  1202A      4.297110  1203A      4.300065  
    1204A      4.304694  1205A      4.313246  1206A      4.315015  
    1207A      4.316786  1208A      4.321777  1209A      4.325460  
    1210A      4.326519  1211A      4.326733  1212A      4.328480  
    1213A      4.334638  1214A      4.339998  1215A      4.342587  
    1216A      4.347400  1217A      4.348344  1218A      4.352308  
    1219A      4.352890  1220A      4.360113  1221A      4.360600  
    1222A      4.364858  1223A      4.366243  1224A      4.370248  
    1225A      4.372963  1226A      4.379417  1227A      4.381862  
    1228A      4.385440  1229A      4.389064  1230A      4.390068  
    1231A      4.396220  1232A      4.396991  1233A      4.398576  
    1234A      4.403827  1235A      4.407073  1236A      4.410766  
    1237A      4.411936  1238A      4.419610  1239A      4.426736  
    1240A      4.427423  1241A      4.430007  1242A      4.430606  
    1243A      4.434470  1244A      4.437798  1245A      4.441199  
    1246A      4.445645  1247A      4.449203  1248A      4.453854  
    1249A      4.457033  1250A      4.464116  1251A      4.464472  
    1252A      4.465022  1253A      4.471453  1254A      4.472279  
    1255A      4.475507  1256A      4.476865  1257A      4.479189  
    1258A      4.490588  1259A      4.491619  1260A      4.492256  
    1261A      4.498575  1262A      4.503982  1263A      4.504698  
    1264A      4.515098  1265A      4.523514  1266A      4.524347  
    1267A      4.528687  1268A      4.532844  1269A      4.534799  
    1270A      4.540056  1271A      4.542638  1272A      4.547731  
    1273A      4.550684  1274A      4.552681  1275A      4.553756  
    1276A      4.558113  1277A      4.562114  1278A      4.572530  
    1279A      4.574816  1280A      4.575627  1281A      4.576073  
    1282A      4.578182  1283A      4.579102  1284A      4.580488  
    1285A      4.589740  1286A      4.591543  1287A      4.593375  
    1288A      4.601409  1289A      4.603215  1290A      4.607048  
    1291A      4.608518  1292A      4.613288  1293A      4.615457  
    1294A      4.619333  1295A      4.623423  1296A      4.625888  
    1297A      4.627706  1298A      4.634847  1299A      4.638384  
    1300A      4.641372  1301A      4.643921  1302A      4.648441  
    1303A      4.655483  1304A      4.662751  1305A      4.667369  
    1306A      4.675831  1307A      4.677123  1308A      4.680994  
    1309A      4.684590  1310A      4.686893  1311A      4.693471  
    1312A      4.699983  1313A      4.702666  1314A      4.708991  
    1315A      4.711774  1316A      4.718644  1317A      4.724659  
    1318A      4.726843  1319A      4.728144  1320A      4.731308  
    1321A      4.740143  1322A      4.745532  1323A      4.745701  
    1324A      4.749220  1325A      4.752192  1326A      4.759568  
    1327A      4.766572  1328A      4.768437  1329A      4.778280  
    1330A      4.778464  1331A      4.780362  1332A      4.781173  
    1333A      4.784384  1334A      4.797188  1335A      4.806326  
    1336A      4.806461  1337A      4.807159  1338A      4.813191  
    1339A      4.815895  1340A      4.817559  1341A      4.826075  
    1342A      4.839401  1343A      4.839717  1344A      4.853013  
    1345A      4.854912  1346A      4.861758  1347A      4.878381  
    1348A      4.881396  1349A      4.884896  1350A      4.887608  
    1351A      4.893513  1352A      4.893674  1353A      4.911174  
    1354A      4.918417  1355A      4.923362  1356A      4.930425  
    1357A      4.930611  1358A      4.935361  1359A      4.946841  
    1360A      4.954985  1361A      4.962834  1362A      4.976816  
    1363A      4.978458  1364A      4.981150  1365A      4.994287  
    1366A      5.000852  1367A      5.004990  1368A      5.010637  
    1369A      5.024732  1370A      5.031647  1371A      5.039683  
    1372A      5.049810  1373A      5.051130  1374A      5.051541  
    1375A      5.053683  1376A      5.055939  1377A      5.060226  
    1378A      5.065227  1379A      5.067469  1380A      5.085772  
    1381A      5.094752  1382A      5.096351  1383A      5.100781  
    1384A      5.102891  1385A      5.107720  1386A      5.115910  
    1387A      5.126171  1388A      5.129839  1389A      5.133822  
    1390A      5.135835  1391A      5.138621  1392A      5.152183  
    1393A      5.153391  1394A      5.158256  1395A      5.164007  
    1396A      5.164943  1397A      5.173941  1398A      5.188773  
    1399A      5.191035  1400A      5.196602  1401A      5.196636  
    1402A      5.208481  1403A      5.213517  1404A      5.214767  
    1405A      5.229751  1406A      5.230313  1407A      5.233497  
    1408A      5.234843  1409A      5.235054  1410A      5.238290  
    1411A      5.244405  1412A      5.249380  1413A      5.254166  
    1414A      5.256909  1415A      5.262801  1416A      5.265267  
    1417A      5.271452  1418A      5.274111  1419A      5.275825  
    1420A      5.278134  1421A      5.283968  1422A      5.292873  
    1423A      5.303979  1424A      5.308769  1425A      5.308918  
    1426A      5.314286  1427A      5.329204  1428A      5.331429  
    1429A      5.336676  1430A      5.340813  1431A      5.349660  
    1432A      5.349834  1433A      5.355759  1434A      5.357417  
    1435A      5.359245  1436A      5.366444  1437A      5.374908  
    1438A      5.375019  1439A      5.384357  1440A      5.403558  
    1441A      5.409068  1442A      5.412703  1443A      5.420538  
    1444A      5.425801  1445A      5.436470  1446A      5.447113  
    1447A      5.455505  1448A      5.460265  1449A      5.469140  
    1450A      5.471026  1451A      5.484952  1452A      5.491291  
    1453A      5.498554  1454A      5.501000  1455A      5.511443  
    1456A      5.513602  1457A      5.516450  1458A      5.521707  
    1459A      5.523980  1460A      5.532919  1461A      5.534901  
    1462A      5.535128  1463A      5.541891  1464A      5.545047  
    1465A      5.548865  1466A      5.558147  1467A      5.566826  
    1468A      5.573168  1469A      5.579523  1470A      5.587387  
    1471A      5.602956  1472A      5.607185  1473A      5.607871  
    1474A      5.609824  1475A      5.615065  1476A      5.620062  
    1477A      5.634577  1478A      5.638184  1479A      5.645729  
    1480A      5.647358  1481A      5.650195  1482A      5.656668  
    1483A      5.658943  1484A      5.659937  1485A      5.665225  
    1486A      5.665738  1487A      5.666481  1488A      5.670740  
    1489A      5.676391  1490A      5.679937  1491A      5.681925  
    1492A      5.682948  1493A      5.683601  1494A      5.685966  
    1495A      5.688338  1496A      5.689277  1497A      5.689515  
    1498A      5.698368  1499A      5.701446  1500A      5.703661  
    1501A      5.707771  1502A      5.718826  1503A      5.722464  
    1504A      5.731577  1505A      5.741059  1506A      5.747363  
    1507A      5.752227  1508A      5.763119  1509A      5.765221  
    1510A      5.768531  1511A      5.769342  1512A      5.772589  
    1513A      5.776359  1514A      5.783711  1515A      5.797544  
    1516A      5.808984  1517A      5.815223  1518A      5.816956  
    1519A      5.820204  1520A      5.843478  1521A      5.846132  
    1522A      5.849890  1523A      5.861537  1524A      5.871900  
    1525A      5.874430  1526A      5.880721  1527A      5.886188  
    1528A      5.893724  1529A      5.901932  1530A      5.904424  
    1531A      5.950982  1532A      5.953886  1533A      5.964119  
    1534A      5.993089  1535A      6.001314  1536A      6.006698  
    1537A      6.013695  1538A      6.015268  1539A      6.020727  
    1540A      6.024213  1541A      6.025620  1542A      6.027239  
    1543A      6.030073  1544A      6.032673  1545A      6.041608  
    1546A      6.044818  1547A      6.052258  1548A      6.065681  
    1549A      6.070440  1550A      6.072481  1551A      6.074780  
    1552A      6.080080  1553A      6.095618  1554A      6.099853  
    1555A      6.104140  1556A      6.106522  1557A      6.114676  
    1558A      6.121788  1559A      6.125854  1560A      6.131205  
    1561A      6.131450  1562A      6.135793  1563A      6.142304  
    1564A      6.143335  1565A      6.145978  1566A      6.151928  
    1567A      6.164846  1568A      6.169219  1569A      6.174245  
    1570A      6.174987  1571A      6.186438  1572A      6.187942  
    1573A      6.199280  1574A      6.200368  1575A      6.202293  
    1576A      6.217142  1577A      6.225809  1578A      6.237696  
    1579A      6.238424  1580A      6.261968  1581A      6.262472  
    1582A      6.273045  1583A      6.289402  1584A      6.294099  
    1585A      6.297197  1586A      6.300270  1587A      6.309870  
    1588A      6.312347  1589A      6.324399  1590A      6.331288  
    1591A      6.350938  1592A      6.360450  1593A      6.367660  
    1594A      6.398331  1595A      6.422668  1596A      6.461151  
    1597A      6.487721  1598A      6.492559  1599A      6.492890  
    1600A      6.497042  1601A      6.566485  1602A      6.580803  
    1603A      6.581022  1604A      6.590827  1605A      6.617611  
    1606A      6.626874  1607A      6.627682  1608A      6.634445  
    1609A      6.635175  1610A      6.635542  1611A      6.647865  
    1612A      6.658602  1613A      6.675047  1614A      6.677954  
    1615A      6.696197  1616A      6.707777  1617A      6.711182  
    1618A      6.713399  1619A      6.717370  1620A      6.718613  
    1621A      6.722822  1622A      6.730391  1623A      6.730665  
    1624A      6.755771  1625A      6.761160  1626A      6.762674  
    1627A      6.769290  1628A      6.783776  1629A      6.788335  
    1630A      6.796310  1631A      6.816340  1632A      6.829715  
    1633A      6.833811  1634A      6.839896  1635A      6.845866  
    1636A      6.898755  1637A      6.900622  1638A      6.909749  
    1639A      6.920635  1640A      6.927100  1641A      6.927666  
    1642A      6.934485  1643A      6.942450  1644A      6.947890  
    1645A      6.950042  1646A      6.954246  1647A      6.959813  
    1648A      6.973829  1649A      6.976130  1650A      6.984655  
    1651A      6.986531  1652A      7.004085  1653A      7.009501  
    1654A      7.014015  1655A      7.021738  1656A      7.026984  
    1657A      7.033910  1658A      7.039256  1659A      7.048032  
    1660A      7.060766  1661A      7.083713  1662A      7.155742  
    1663A      7.194671  1664A      7.197852  1665A      7.228150  
    1666A      7.241106  1667A      7.243227  1668A      7.255634  
    1669A      7.258788  1670A      7.266141  1671A      7.270689  
    1672A      7.277812  1673A      7.287079  1674A      7.296588  
    1675A      7.302394  1676A      7.340964  1677A      7.342416  
    1678A      7.343970  1679A      7.348593  1680A      7.350681  
    1681A      7.355846  1682A      7.357297  1683A      7.361270  
    1684A      7.368506  1685A      7.371250  1686A      7.389620  
    1687A      7.393618  1688A      7.394017  1689A      7.400035  
    1690A      7.410273  1691A      7.420863  1692A      7.472142  
    1693A      7.505096  1694A      7.510546  1695A      7.525469  
    1696A      7.531465  1697A      7.534837  1698A      7.537201  
    1699A      7.539377  1700A      7.545654  1701A      7.547963  
    1702A      7.558409  1703A      7.563012  1704A      7.570697  
    1705A      7.589399  1706A      7.600258  1707A      7.605826  
    1708A      7.629485  1709A      7.651240  1710A      7.693996  
    1711A      7.757621  1712A      7.783111  1713A      7.806237  
    1714A      7.849627  1715A      7.854208  1716A      7.888341  
    1717A      8.122420  1718A      8.151601  1719A      8.173088  
    1720A     10.011183  1721A     10.217902  1722A     10.238929  
    1723A     10.353291  1724A     10.560975  1725A     10.683847  
    1726A     10.699388  1727A     10.707616  1728A     10.788993  
    1729A     12.055825  1730A     12.140941  1731A     12.158297  
    1732A     12.177049  1733A     12.315022  1734A     12.645781  
    1735A     12.905242  1736A     13.017543  1737A     13.108034  
    1738A     13.121222  1739A     13.147719  1740A     13.175045  
    1741A     13.439118  1742A     13.568847  1743A     13.585620  
    1744A     13.721255  1745A     13.733382  1746A     13.756567  
    1747A     13.833836  1748A     13.847613  1749A     13.897212  
    1750A     13.981569  1751A     14.065012  1752A     14.233443  
    1753A     14.285305  1754A     14.302257  1755A     14.416513  
    1756A     14.496980  1757A     14.702572  1758A     14.885565  

    Final Occupation by Irrep:
              A 
    DOCC [   153 ]

  Energy converged.

  @DF-RHF Final Energy: -2045.24460741213875

   => Energetics <=

    Nuclear Repulsion Energy =           3942.7865771560391295
    One-Electron Energy =              -10651.4732508185079496
    Two-Electron Energy =                4663.4420662503298445
    Total Energy =                      -2045.2446074121389756



Properties will be evaluated at   0.000000,   0.000000,   0.000000 Bohr

Properties computed using the SCF density matrix

  Nuclear Dipole Moment: (a.u.)
     X:   -20.8036      Y:   -23.1315      Z:   -12.8132

  Electronic Dipole Moment: (a.u.)
     X:    21.3936      Y:    22.0780      Z:    14.8764

  Dipole Moment: (a.u.)
     X:     0.5900      Y:    -1.0535      Z:     2.0632     Total:     2.3905

  Dipole Moment: (Debye)
     X:     1.4995      Y:    -2.6777      Z:     5.2440     Total:     6.0761


*** tstop() called on hex15 at Sun Mar  4 13:23:04 2018
Module time:
	user time   =    3494.37 seconds =      58.24 minutes
	system time =      18.10 seconds =       0.30 minutes
	total time  =       1838 seconds =      30.63 minutes
Total time:
	user time   =    3494.37 seconds =      58.24 minutes
	system time =      18.10 seconds =       0.30 minutes
	total time  =       1838 seconds =      30.63 minutes

*** Psi4 exiting successfully. Buy a developer a beer!
