
    -----------------------------------------------------------------------
          Psi4: An Open-Source Ab Initio Electronic Structure Package
                               Psi4 1.2a1.dev875 

                         Git: Rev {symm_JK} 0ea9481 dirty


    R. M. Parrish, L. A. Burns, D. G. A. Smith, A. C. Simmonett,
    A. E. DePrince III, E. G. Hohenstein, U. Bozkaya, A. Yu. Sokolov,
    R. Di Remigio, R. M. Richard, J. F. Gonthier, A. M. James,
    H. R. McAlexander, A. Kumar, M. Saitow, X. Wang, B. P. Pritchard,
    P. Verma, H. F. Schaefer III, K. Patkowski, R. A. King, E. F. Valeev,
    F. A. Evangelista, J. M. Turney, T. D. Crawford, and C. D. Sherrill,
    J. Chem. Theory Comput. 13(7) pp 3185--3197 (2017).
    (doi: 10.1021/acs.jctc.7b00174)

    -----------------------------------------------------------------------


    Psi4 started on: Friday, 02 March 2018 03:43PM

    Process ID:  21915
    PSIDATADIR: /theoryfs2/ds/schieber/Gits/mspsi4/objdir3/stage/usr/local/psi4/share/psi4
    Memory:     500.0 MiB
    Threads:    6
    
  ==> Input File <==

--------------------------------------------------------------------------
memory 60 Gb

molecule protein_243 {
0 1
 N   26.992  23.877   6.169
 C   25.757  24.566   6.593
 C   26.029  26.025   6.996
 O   26.947  26.291   7.775
 C   25.087  23.849   7.776
 C   24.646  22.409   7.505
 C   23.728  21.896   8.637
 N   22.952  20.730   8.230
 C   22.367  19.871   9.064
 N   22.376  20.074  10.370
 N   21.776  18.789   8.589
 N   18.626  30.444   6.627
 C   17.853  29.516   5.837
 C   16.945  30.292   4.886
 O   15.843  30.678   5.237
 C   17.047  28.642   6.811
 C   16.316  27.513   6.146
 O   16.236  27.458   4.905
 O   15.762  26.696   6.882
 N   15.213  29.111   2.702
 C   14.043  28.331   2.349
 C   12.958  28.456   3.394
 O   11.832  28.015   3.171
 N    4.567  24.042   8.795
 C    4.886  22.777   8.145
 C    6.265  22.720   7.521
 O    6.723  23.689   6.900
 N    7.015  21.688   7.884
 C    8.313  21.471   7.276
 C    8.221  20.379   6.232
 O    7.177  20.197   5.583
 N   17.220  22.219  14.948
 C   18.236  23.243  14.762
 C   17.549  24.626  14.801
 O   16.328  24.735  14.569
 C   18.969  23.017  13.388
 C   18.009  22.769  12.263
 C   19.843  24.144  13.080
 N    9.661  34.528  -1.525
 C   10.385  33.251  -1.642
 C   11.348  33.305  -2.780
 O   10.964  33.682  -3.906
 C    9.435  32.061  -1.862
 C    8.623  31.716  -0.644
 C    7.828  30.471  -0.844
 N    7.143  30.102   0.378
 C    6.523  28.938   0.561
 N    6.476  28.028  -0.411
 N    5.925  28.688   1.719
 N   17.407  27.054  -1.437
 C   17.227  26.751  -0.026
 C   18.555  26.446   0.653
 O   19.003  25.309   0.692
 C   16.258  25.572   0.084
 C   15.759  25.336   1.493
 O   16.399  25.780   2.453
 O   14.731  24.675   1.645
 N   19.106  26.199   3.688
 C   18.957  25.372   4.876
 C   18.845  23.903   4.520
 O   18.660  23.054   5.417
 N   18.819  23.600   3.217
 C   18.721  22.211   2.738
 C   20.089  21.661   2.292
 O   20.749  22.243   1.403
 C   17.682  22.117   1.578
 N   20.536  20.559   2.918
 C   21.779  19.912   2.496
 C   21.693  19.374   1.107
 O   22.642  19.502   0.361
 C   22.169  18.827   3.447
 C   22.272  19.337   4.844
 O   22.714  20.482   5.029
 O   21.836  18.647   5.778
 N   20.524  18.868   0.719
 C   20.355  18.227  -0.584
 C   19.212  18.807  -1.371
 O   18.383  19.523  -0.846
 C   20.084  16.745  -0.413
 C   21.023  16.088   0.586
 O   22.233  15.970   0.265
 O   20.531  15.682   1.672
 N   15.750  18.102  -3.440
 C   14.628  17.162  -3.514
 C   13.618  17.726  -4.436
 O   13.169  18.861  -4.263
 C   13.781  17.005  -2.245
 C   13.297  15.592  -2.184
 C   14.518  17.455  -1.007
 N   15.542  14.239   6.941
 C   14.714  14.799   8.014
 C   14.762  16.314   8.114
 O   15.803  16.952   7.888
 N   13.583  16.896   8.239
 C   13.484  18.319   8.459
 C   12.647  18.565   9.672
 O   12.880  17.976  10.721
 N   11.850  19.611   9.584
 C   10.858  19.974  10.594
 C    9.707  18.988  10.393
 O    9.341  18.670   9.251
 C   10.365  21.453  10.316
 C   11.556  22.421  10.394
 C    9.299  21.862  11.270
 C   11.936  22.850  11.773
 N    6.922  19.074  -0.214
 C    5.896  20.066  -0.556
 C    6.244  20.969  -1.727
 O    5.343  21.294  -2.509
 C    5.694  20.874   0.729
 C    6.274  19.954   1.831
 C    7.387  19.243   1.190
 H   27.334  23.065   6.705
 H   25.033  24.519   5.755
 H   24.188  24.444   8.041
 H   25.767  23.854   8.654
 H   25.479  21.708   7.285
 H   23.966  22.527   6.640
 H   23.005  22.676   8.962
 H   24.404  21.653   9.485
 H   23.018  20.444   7.256
 H   22.784  20.916  10.798
 H   21.927  19.391  10.999
 H   21.610  18.348   7.739
 H   18.180  30.990   7.295
 H   18.510  28.835   5.249
 H   16.336  29.276   7.377
 H   17.778  28.186   7.516
 H   15.845  26.702   7.843
 H   16.039  28.625   3.045
 H   14.291  27.264   2.274
 H   13.668  28.640   1.350
 H    4.436  24.871   8.195
 H    4.744  21.930   8.802
 H    4.143  22.632   7.335
 H    6.726  21.108   8.640
 H    8.930  22.366   7.083
 H    8.776  20.887   8.058
 H   16.406  22.244  14.318
 H   18.999  23.198  15.571
 H   19.592  22.100  13.487
 H   17.324  23.628  12.134
 H   17.428  21.844  12.409
 H   18.569  22.629  11.315
 H   19.278  25.069  12.869
 H   20.434  23.924  12.164
 H   20.573  24.316  13.899
 H   10.354  35.296  -1.365
 H    9.039  34.508  -0.687
 H   10.930  33.064  -0.693
 H   10.068  31.172  -2.085
 H    8.777  32.246  -2.740
 H    7.934  32.550  -0.391
 H    9.318  31.553   0.211
 H    8.557  29.667  -1.094
 H    7.099  30.580  -1.677
 H    7.157  30.766   1.165
 H    6.905  28.158  -1.337
 H    5.226  27.934   1.752
 H    6.506  28.741   2.545
 H   17.860  26.421  -2.023
 H   16.724  27.595   0.500
 H   16.724  24.663  -0.337
 H   15.363  25.845  -0.519
 H   16.737  25.171   3.109
 H   18.314  26.771   3.377
 H   18.015  25.631   5.391
 H   19.792  25.567   5.577
 H   19.024  24.284   2.529
 H   18.255  21.593   3.494
 H   18.005  22.732   0.714
 H   16.693  22.482   1.927
 H   17.576  21.064   1.246
 H   19.976  20.073   3.597
 H   22.602  20.664   2.537
 H   23.175  18.459   3.144
 H   21.465  17.966   3.392
 H   21.492  17.752   5.634
 H   19.735  18.818   1.381
 H   21.291  18.340  -1.170
 H   20.109  16.188  -1.374
 H   19.050  16.648  -0.012
 H   19.629  15.364   1.734
 H   15.541  19.065  -3.172
 H   15.011  16.180  -3.836
 H   12.886  17.674  -2.203
 H   14.115  14.872  -2.046
 H   12.706  15.323  -3.086
 H   12.624  15.478  -1.307
 H   15.405  16.799  -0.936
 H   13.886  17.316  -0.103
 H   14.813  18.522  -1.068
 H   16.553  14.447   6.959
 H   15.127  14.418   8.968
 H   13.688  14.463   7.968
 H   12.728  16.393   8.153
 H   13.053  18.790   7.555
 H   14.480  18.781   8.624
 H   11.826  20.143   8.698
 H   11.286  19.940  11.621
 H   10.063  21.564   9.297
 H   11.315  23.360   9.884
 H   12.440  22.023   9.856
 H    9.621  21.714  12.318
 H    8.394  21.239  11.113
 H    8.997  22.919  11.107
 H   11.134  23.426  12.282
 H   12.810  23.522  11.686
 H   12.221  21.978  12.391
 H    4.941  19.524  -0.743
 H    4.677  21.290   0.894
 H    6.394  21.728   0.689
 H    5.477  19.197   2.015
 H    6.502  20.431   2.804
 H    8.302  19.874   1.184
 H    7.530  18.304   1.761
 H   21.381  18.267   9.325
 H    9.833  34.762  -1.491
 H   10.143  33.635  -1.627
 H    9.854  34.178  -1.590
 H    6.004  27.183  -0.233
 H   27.572  24.275   5.431
 H   25.288  26.786   6.709
 H   19.646  30.419   6.619
 H   17.295  30.415   3.850
 H   15.281  30.079   2.387
 H   13.242  28.880   4.368
 H    4.454  24.117   9.806
 H    9.121  19.750   6.168
 H   17.321  21.440  15.599
 H   18.162  25.488  15.103
 H   10.170  35.409  -1.454
 H   12.322  32.817  -2.630
 H   16.947  27.858  -1.864
 H   19.060  27.284   1.155
 H   20.034  26.347   3.290
 H   19.162  18.493  -2.424
 H   16.715  17.829  -3.624
 H   13.269  17.060  -5.239
 H   15.140  13.678   6.190
 H    9.255  18.544  11.293
 H    7.155  18.340  -0.883
 H    7.291  21.286  -1.843
}

set {
basis cc-pvdz
scf_type df
guess sad
DF_SCF_TYPE DFJK
}

energy('HF')
--------------------------------------------------------------------------

  Memory set to  55.879 GiB by Python driver.

*** tstart() called on hex15
*** at Fri Mar  2 15:43:35 2018

   => Loading Basis Set <=

    Name: CC-PVDZ
    Role: ORBITAL
    Keyword: BASIS
    atoms 1, 8, 10-12, 20, 24, 28, 32, 39, 46, 48-50, 58, 62, 67, 75, 83, 90, 94, 98, 106                                                                                                                           entry N          line   168 file /theoryfs2/ds/schieber/Gits/mspsi4/objdir3/stage/usr/local/psi4/share/psi4/basis/cc-pvdz.gbs 
    atoms 2-3, 5-7, 9, 13-14, 16-17, 21-22, 25-26, 29-30, 33-34, 36-38, 40-41, 43-45, 47, 51-52, 54-55, 59-60, 63-64, 66, 68-69, 71-72, 76-77, 79-80, 84-85, 87-89, 91-92, 95-96, 99-100, 102-105, 107-108, 110-112 entry C          line   138 file /theoryfs2/ds/schieber/Gits/mspsi4/objdir3/stage/usr/local/psi4/share/psi4/basis/cc-pvdz.gbs 
    atoms 4, 15, 18-19, 23, 27, 31, 35, 42, 53, 56-57, 61, 65, 70, 73-74, 78, 81-82, 86, 93, 97, 101, 109                                                                                                           entry O          line   198 file /theoryfs2/ds/schieber/Gits/mspsi4/objdir3/stage/usr/local/psi4/share/psi4/basis/cc-pvdz.gbs 
    atoms 113-243                                                                                                                                                                                                   entry H          line    22 file /theoryfs2/ds/schieber/Gits/mspsi4/objdir3/stage/usr/local/psi4/share/psi4/basis/cc-pvdz.gbs 


         ---------------------------------------------------------
                                   SCF
            by Justin Turney, Rob Parrish, Andy Simmonett
                             and Daniel Smith
                              RHF Reference
                        6 Threads,  57220 MiB Core
         ---------------------------------------------------------

  ==> Geometry <==

    Molecular point group: c1
    Full point group: C1

    Geometry (in Angstrom), charge = 0, multiplicity = 1:

       Center              X                  Y                   Z               Mass       
    ------------   -----------------  -----------------  -----------------  -----------------
           N         11.668095202184     1.002455207814     1.870042977698    14.003074004780
           C         10.433095202184     1.691455207814     2.294042977698    12.000000000000
           C         10.705095202184     3.150455207814     2.697042977698    12.000000000000
           O         11.623095202184     3.416455207814     3.476042977698    15.994914619560
           C          9.763095202184     0.974455207814     3.477042977698    12.000000000000
           C          9.322095202184    -0.465544792186     3.206042977698    12.000000000000
           C          8.404095202184    -0.978544792186     4.338042977698    12.000000000000
           N          7.628095202184    -2.144544792186     3.931042977698    14.003074004780
           C          7.043095202184    -3.003544792186     4.765042977698    12.000000000000
           N          7.052095202184    -2.800544792186     6.071042977698    14.003074004780
           N          6.452095202184    -4.085544792186     4.290042977698    14.003074004780
           N          3.302095202184     7.569455207814     2.328042977698    14.003074004780
           C          2.529095202184     6.641455207814     1.538042977698    12.000000000000
           C          1.621095202184     7.417455207814     0.587042977698    12.000000000000
           O          0.519095202184     7.803455207814     0.938042977698    15.994914619560
           C          1.723095202184     5.767455207814     2.512042977698    12.000000000000
           C          0.992095202184     4.638455207814     1.847042977698    12.000000000000
           O          0.912095202184     4.583455207814     0.606042977698    15.994914619560
           O          0.438095202184     3.821455207814     2.583042977698    15.994914619560
           N         -0.110904797816     6.236455207814    -1.596957022302    14.003074004780
           C         -1.280904797816     5.456455207814    -1.949957022302    12.000000000000
           C         -2.365904797816     5.581455207814    -0.904957022302    12.000000000000
           O         -3.491904797816     5.140455207814    -1.127957022302    15.994914619560
           N        -10.756904797816     1.167455207814     4.496042977698    14.003074004780
           C        -10.437904797816    -0.097544792186     3.846042977698    12.000000000000
           C         -9.058904797816    -0.154544792186     3.222042977698    12.000000000000
           O         -8.600904797816     0.814455207814     2.601042977698    15.994914619560
           N         -8.308904797816    -1.186544792186     3.585042977698    14.003074004780
           C         -7.010904797816    -1.403544792186     2.977042977698    12.000000000000
           C         -7.102904797816    -2.495544792186     1.933042977698    12.000000000000
           O         -8.146904797816    -2.677544792186     1.284042977698    15.994914619560
           N          1.896095202184    -0.655544792186    10.649042977698    14.003074004780
           C          2.912095202184     0.368455207814    10.463042977698    12.000000000000
           C          2.225095202184     1.751455207814    10.502042977698    12.000000000000
           O          1.004095202184     1.860455207814    10.270042977698    15.994914619560
           C          3.645095202184     0.142455207814     9.089042977698    12.000000000000
           C          2.685095202184    -0.105544792186     7.964042977698    12.000000000000
           C          4.519095202184     1.269455207814     8.781042977698    12.000000000000
           N         -5.662904797816    11.653455207814    -5.823957022302    14.003074004780
           C         -4.938904797816    10.376455207814    -5.940957022302    12.000000000000
           C         -3.975904797816    10.430455207814    -7.078957022302    12.000000000000
           O         -4.359904797816    10.807455207814    -8.204957022302    15.994914619560
           C         -5.888904797816     9.186455207814    -6.160957022302    12.000000000000
           C         -6.700904797816     8.841455207814    -4.942957022302    12.000000000000
           C         -7.495904797816     7.596455207814    -5.142957022302    12.000000000000
           N         -8.180904797816     7.227455207814    -3.920957022302    14.003074004780
           C         -8.800904797816     6.063455207814    -3.737957022302    12.000000000000
           N         -8.847904797816     5.153455207814    -4.709957022302    14.003074004780
           N         -9.398904797816     5.813455207814    -2.579957022302    14.003074004780
           N          2.083095202184     4.179455207814    -5.735957022302    14.003074004780
           C          1.903095202184     3.876455207814    -4.324957022302    12.000000000000
           C          3.231095202184     3.571455207814    -3.645957022302    12.000000000000
           O          3.679095202184     2.434455207814    -3.606957022302    15.994914619560
           C          0.934095202184     2.697455207814    -4.214957022302    12.000000000000
           C          0.435095202184     2.461455207814    -2.805957022302    12.000000000000
           O          1.075095202184     2.905455207814    -1.845957022302    15.994914619560
           O         -0.592904797816     1.800455207814    -2.653957022302    15.994914619560
           N          3.782095202184     3.324455207814    -0.610957022302    14.003074004780
           C          3.633095202184     2.497455207814     0.577042977698    12.000000000000
           C          3.521095202184     1.028455207814     0.221042977698    12.000000000000
           O          3.336095202184     0.179455207814     1.118042977698    15.994914619560
           N          3.495095202184     0.725455207814    -1.081957022302    14.003074004780
           C          3.397095202184    -0.663544792186    -1.560957022302    12.000000000000
           C          4.765095202184    -1.213544792186    -2.006957022302    12.000000000000
           O          5.425095202184    -0.631544792186    -2.895957022302    15.994914619560
           C          2.358095202184    -0.757544792186    -2.720957022302    12.000000000000
           N          5.212095202184    -2.315544792186    -1.380957022302    14.003074004780
           C          6.455095202184    -2.962544792186    -1.802957022302    12.000000000000
           C          6.369095202184    -3.500544792186    -3.191957022302    12.000000000000
           O          7.318095202184    -3.372544792186    -3.937957022302    15.994914619560
           C          6.845095202184    -4.047544792186    -0.851957022302    12.000000000000
           C          6.948095202184    -3.537544792186     0.545042977698    12.000000000000
           O          7.390095202184    -2.392544792186     0.730042977698    15.994914619560
           O          6.512095202184    -4.227544792186     1.479042977698    15.994914619560
           N          5.200095202184    -4.006544792186    -3.579957022302    14.003074004780
           C          5.031095202184    -4.647544792186    -4.882957022302    12.000000000000
           C          3.888095202184    -4.067544792186    -5.669957022302    12.000000000000
           O          3.059095202184    -3.351544792186    -5.144957022302    15.994914619560
           C          4.760095202184    -6.129544792186    -4.711957022302    12.000000000000
           C          5.699095202184    -6.786544792186    -3.712957022302    12.000000000000
           O          6.909095202184    -6.904544792186    -4.033957022302    15.994914619560
           O          5.207095202184    -7.192544792186    -2.626957022302    15.994914619560
           N          0.426095202184    -4.772544792186    -7.738957022302    14.003074004780
           C         -0.695904797816    -5.712544792186    -7.812957022302    12.000000000000
           C         -1.705904797816    -5.148544792186    -8.734957022302    12.000000000000
           O         -2.154904797816    -4.013544792186    -8.561957022302    15.994914619560
           C         -1.542904797816    -5.869544792186    -6.543957022302    12.000000000000
           C         -2.026904797816    -7.282544792186    -6.482957022302    12.000000000000
           C         -0.805904797816    -5.419544792186    -5.305957022302    12.000000000000
           N          0.218095202184    -8.635544792186     2.642042977698    14.003074004780
           C         -0.609904797816    -8.075544792186     3.715042977698    12.000000000000
           C         -0.561904797816    -6.560544792186     3.815042977698    12.000000000000
           O          0.479095202184    -5.922544792186     3.589042977698    15.994914619560
           N         -1.740904797816    -5.978544792186     3.940042977698    14.003074004780
           C         -1.839904797816    -4.555544792186     4.160042977698    12.000000000000
           C         -2.676904797816    -4.309544792186     5.373042977698    12.000000000000
           O         -2.443904797816    -4.898544792186     6.422042977698    15.994914619560
           N         -3.473904797816    -3.263544792186     5.285042977698    14.003074004780
           C         -4.465904797816    -2.900544792186     6.295042977698    12.000000000000
           C         -5.616904797816    -3.886544792186     6.094042977698    12.000000000000
           O         -5.982904797816    -4.204544792186     4.952042977698    15.994914619560
           C         -4.958904797816    -1.421544792186     6.017042977698    12.000000000000
           C         -3.767904797816    -0.453544792186     6.095042977698    12.000000000000
           C         -6.024904797816    -1.012544792186     6.971042977698    12.000000000000
           C         -3.387904797816    -0.024544792186     7.474042977698    12.000000000000
           N         -8.401904797816    -3.800544792186    -4.512957022302    14.003074004780
           C         -9.427904797816    -2.808544792186    -4.854957022302    12.000000000000
           C         -9.079904797816    -1.905544792186    -6.025957022302    12.000000000000
           O         -9.980904797816    -1.580544792186    -6.807957022302    15.994914619560
           C         -9.629904797816    -2.000544792186    -3.569957022302    12.000000000000
           C         -9.049904797816    -2.920544792186    -2.467957022302    12.000000000000
           C         -7.936904797816    -3.631544792186    -3.108957022302    12.000000000000
           H         12.010095202184     0.190455207814     2.406042977698     1.007825032070
           H          9.709095202184     1.644455207814     1.456042977698     1.007825032070
           H          8.864095202184     1.569455207814     3.742042977698     1.007825032070
           H         10.443095202184     0.979455207814     4.355042977698     1.007825032070
           H         10.155095202184    -1.166544792186     2.986042977698     1.007825032070
           H          8.642095202184    -0.347544792186     2.341042977698     1.007825032070
           H          7.681095202184    -0.198544792186     4.663042977698     1.007825032070
           H          9.080095202184    -1.221544792186     5.186042977698     1.007825032070
           H          7.694095202184    -2.430544792186     2.957042977698     1.007825032070
           H          7.460095202184    -1.958544792186     6.499042977698     1.007825032070
           H          6.603095202184    -3.483544792186     6.700042977698     1.007825032070
           H          6.286095202184    -4.526544792186     3.440042977698     1.007825032070
           H          2.856095202184     8.115455207814     2.996042977698     1.007825032070
           H          3.186095202184     5.960455207814     0.950042977698     1.007825032070
           H          1.012095202184     6.401455207814     3.078042977698     1.007825032070
           H          2.454095202184     5.311455207814     3.217042977698     1.007825032070
           H          0.521095202184     3.827455207814     3.544042977698     1.007825032070
           H          0.715095202184     5.750455207814    -1.253957022302     1.007825032070
           H         -1.032904797816     4.389455207814    -2.024957022302     1.007825032070
           H         -1.655904797816     5.765455207814    -2.948957022302     1.007825032070
           H        -10.887904797816     1.996455207814     3.896042977698     1.007825032070
           H        -10.579904797816    -0.944544792186     4.503042977698     1.007825032070
           H        -11.180904797816    -0.242544792186     3.036042977698     1.007825032070
           H         -8.597904797816    -1.766544792186     4.341042977698     1.007825032070
           H         -6.393904797816    -0.508544792186     2.784042977698     1.007825032070
           H         -6.547904797816    -1.987544792186     3.759042977698     1.007825032070
           H          1.082095202184    -0.630544792186    10.019042977698     1.007825032070
           H          3.675095202184     0.323455207814    11.272042977698     1.007825032070
           H          4.268095202184    -0.774544792186     9.188042977698     1.007825032070
           H          2.000095202184     0.753455207814     7.835042977698     1.007825032070
           H          2.104095202184    -1.030544792186     8.110042977698     1.007825032070
           H          3.245095202184    -0.245544792186     7.016042977698     1.007825032070
           H          3.954095202184     2.194455207814     8.570042977698     1.007825032070
           H          5.110095202184     1.049455207814     7.865042977698     1.007825032070
           H          5.249095202184     1.441455207814     9.600042977698     1.007825032070
           H         -4.969904797816    12.421455207814    -5.663957022302     1.007825032070
           H         -6.284904797816    11.633455207814    -4.985957022302     1.007825032070
           H         -4.393904797816    10.189455207814    -4.991957022302     1.007825032070
           H         -5.255904797816     8.297455207814    -6.383957022302     1.007825032070
           H         -6.546904797816     9.371455207814    -7.038957022302     1.007825032070
           H         -7.389904797816     9.675455207814    -4.689957022302     1.007825032070
           H         -6.005904797816     8.678455207814    -4.087957022302     1.007825032070
           H         -6.766904797816     6.792455207814    -5.392957022302     1.007825032070
           H         -8.224904797816     7.705455207814    -5.975957022302     1.007825032070
           H         -8.166904797816     7.891455207814    -3.133957022302     1.007825032070
           H         -8.418904797816     5.283455207814    -5.635957022302     1.007825032070
           H        -10.097904797816     5.059455207814    -2.546957022302     1.007825032070
           H         -8.817904797816     5.866455207814    -1.753957022302     1.007825032070
           H          2.536095202184     3.546455207814    -6.321957022302     1.007825032070
           H          1.400095202184     4.720455207814    -3.798957022302     1.007825032070
           H          1.400095202184     1.788455207814    -4.635957022302     1.007825032070
           H          0.039095202184     2.970455207814    -4.817957022302     1.007825032070
           H          1.413095202184     2.296455207814    -1.189957022302     1.007825032070
           H          2.990095202184     3.896455207814    -0.921957022302     1.007825032070
           H          2.691095202184     2.756455207814     1.092042977698     1.007825032070
           H          4.468095202184     2.692455207814     1.278042977698     1.007825032070
           H          3.700095202184     1.409455207814    -1.769957022302     1.007825032070
           H          2.931095202184    -1.281544792186    -0.804957022302     1.007825032070
           H          2.681095202184    -0.142544792186    -3.584957022302     1.007825032070
           H          1.369095202184    -0.392544792186    -2.371957022302     1.007825032070
           H          2.252095202184    -1.810544792186    -3.052957022302     1.007825032070
           H          4.652095202184    -2.801544792186    -0.701957022302     1.007825032070
           H          7.278095202184    -2.210544792186    -1.761957022302     1.007825032070
           H          7.851095202184    -4.415544792186    -1.154957022302     1.007825032070
           H          6.141095202184    -4.908544792186    -0.906957022302     1.007825032070
           H          6.168095202184    -5.122544792186     1.335042977698     1.007825032070
           H          4.411095202184    -4.056544792186    -2.917957022302     1.007825032070
           H          5.967095202184    -4.534544792186    -5.468957022302     1.007825032070
           H          4.785095202184    -6.686544792186    -5.672957022302     1.007825032070
           H          3.726095202184    -6.226544792186    -4.310957022302     1.007825032070
           H          4.305095202184    -7.510544792186    -2.564957022302     1.007825032070
           H          0.217095202184    -3.809544792186    -7.470957022302     1.007825032070
           H         -0.312904797816    -6.694544792186    -8.134957022302     1.007825032070
           H         -2.437904797816    -5.200544792186    -6.501957022302     1.007825032070
           H         -1.208904797816    -8.002544792186    -6.344957022302     1.007825032070
           H         -2.617904797816    -7.551544792186    -7.384957022302     1.007825032070
           H         -2.699904797816    -7.396544792186    -5.605957022302     1.007825032070
           H          0.081095202184    -6.075544792186    -5.234957022302     1.007825032070
           H         -1.437904797816    -5.558544792186    -4.401957022302     1.007825032070
           H         -0.510904797816    -4.352544792186    -5.366957022302     1.007825032070
           H          1.229095202184    -8.427544792186     2.660042977698     1.007825032070
           H         -0.196904797816    -8.456544792186     4.669042977698     1.007825032070
           H         -1.635904797816    -8.411544792186     3.669042977698     1.007825032070
           H         -2.595904797816    -6.481544792186     3.854042977698     1.007825032070
           H         -2.270904797816    -4.084544792186     3.256042977698     1.007825032070
           H         -0.843904797816    -4.093544792186     4.325042977698     1.007825032070
           H         -3.497904797816    -2.731544792186     4.399042977698     1.007825032070
           H         -4.037904797816    -2.934544792186     7.322042977698     1.007825032070
           H         -5.260904797816    -1.310544792186     4.998042977698     1.007825032070
           H         -4.008904797816     0.485455207814     5.585042977698     1.007825032070
           H         -2.883904797816    -0.851544792186     5.557042977698     1.007825032070
           H         -5.702904797816    -1.160544792186     8.019042977698     1.007825032070
           H         -6.929904797816    -1.635544792186     6.814042977698     1.007825032070
           H         -6.326904797816     0.044455207814     6.808042977698     1.007825032070
           H         -4.189904797816     0.551455207814     7.983042977698     1.007825032070
           H         -2.513904797816     0.647455207814     7.387042977698     1.007825032070
           H         -3.102904797816    -0.896544792186     8.092042977698     1.007825032070
           H        -10.382904797816    -3.350544792186    -5.041957022302     1.007825032070
           H        -10.646904797816    -1.584544792186    -3.404957022302     1.007825032070
           H         -8.929904797816    -1.146544792186    -3.609957022302     1.007825032070
           H         -9.846904797816    -3.677544792186    -2.283957022302     1.007825032070
           H         -8.821904797816    -2.443544792186    -1.494957022302     1.007825032070
           H         -7.021904797816    -3.000544792186    -3.114957022302     1.007825032070
           H         -7.793904797816    -4.570544792186    -2.537957022302     1.007825032070
           H          6.057095202184    -4.607544792186     5.026042977698     1.007825032070
           H         -5.490904797816    11.887455207814    -5.789957022302     1.007825032070
           H         -5.180904797816    10.760455207814    -5.925957022302     1.007825032070
           H         -5.469904797816    11.303455207814    -5.888957022302     1.007825032070
           H         -9.319904797816     4.308455207814    -4.531957022302     1.007825032070
           H         12.248095202184     1.400455207814     1.132042977698     1.007825032070
           H          9.964095202184     3.911455207814     2.410042977698     1.007825032070
           H          4.322095202184     7.544455207814     2.320042977698     1.007825032070
           H          1.971095202184     7.540455207814    -0.448957022302     1.007825032070
           H         -0.042904797816     7.204455207814    -1.911957022302     1.007825032070
           H         -2.081904797816     6.005455207814     0.069042977698     1.007825032070
           H        -10.869904797816     1.242455207814     5.507042977698     1.007825032070
           H         -6.202904797816    -3.124544792186     1.869042977698     1.007825032070
           H          1.997095202184    -1.434544792186    11.300042977698     1.007825032070
           H          2.838095202184     2.613455207814    10.804042977698     1.007825032070
           H         -5.153904797816    12.534455207814    -5.752957022302     1.007825032070
           H         -3.001904797816     9.942455207814    -6.928957022302     1.007825032070
           H          1.623095202184     4.983455207814    -6.162957022302     1.007825032070
           H          3.736095202184     4.409455207814    -3.143957022302     1.007825032070
           H          4.710095202184     3.472455207814    -1.008957022302     1.007825032070
           H          3.838095202184    -4.381544792186    -6.722957022302     1.007825032070
           H          1.391095202184    -5.045544792186    -7.922957022302     1.007825032070
           H         -2.054904797816    -5.814544792186    -9.537957022302     1.007825032070
           H         -0.183904797816    -9.196544792186     1.891042977698     1.007825032070
           H         -6.068904797816    -4.330544792186     6.994042977698     1.007825032070
           H         -8.168904797816    -4.534544792186    -5.181957022302     1.007825032070
           H         -8.032904797816    -1.588544792186    -6.141957022302     1.007825032070

  Running in c1 symmetry.

  Rotational constants: A =      0.00025  B =      0.00018  C =      0.00018 [cm^-1]
  Rotational constants: A =      7.39369  B =      5.49949  C =      5.27267 [MHz]
  Nuclear repulsion = 23097.424962943750870

  Charge       = 0
  Multiplicity = 1
  Electrons    = 876
  Nalpha       = 438
  Nbeta        = 438

  ==> Algorithm <==

  SCF Algorithm Type is DF.
  DIIS enabled.
  MOM disabled.
  Fractional occupation disabled.
  Guess Type is SAD.
  Energy threshold   = 1.00e-06
  Density threshold  = 1.00e-06
  Integral threshold = 0.00e+00

  ==> Primary Basis <==

  Basis Set: CC-PVDZ
    Blend: CC-PVDZ
    Number of shells: 1065
    Number of basis function: 2223
    Number of Cartesian functions: 2335
    Spherical Harmonics?: true
    Max angular momentum: 2

   => Loading Basis Set <=

    Name: (CC-PVDZ AUX)
    Role: JKFIT
    Keyword: DF_BASIS_SCF
    atoms 1, 8, 10-12, 20, 24, 28, 32, 39, 46, 48-50, 58, 62, 67, 75, 83, 90, 94, 98, 106                                                                                                                           entry N          line   171 file /theoryfs2/ds/schieber/Gits/mspsi4/objdir3/stage/usr/local/psi4/share/psi4/basis/cc-pvdz-jkfit.gbs 
    atoms 2-3, 5-7, 9, 13-14, 16-17, 21-22, 25-26, 29-30, 33-34, 36-38, 40-41, 43-45, 47, 51-52, 54-55, 59-60, 63-64, 66, 68-69, 71-72, 76-77, 79-80, 84-85, 87-89, 91-92, 95-96, 99-100, 102-105, 107-108, 110-112 entry C          line   121 file /theoryfs2/ds/schieber/Gits/mspsi4/objdir3/stage/usr/local/psi4/share/psi4/basis/cc-pvdz-jkfit.gbs 
    atoms 4, 15, 18-19, 23, 27, 31, 35, 42, 53, 56-57, 61, 65, 70, 73-74, 78, 81-82, 86, 93, 97, 101, 109                                                                                                           entry O          line   221 file /theoryfs2/ds/schieber/Gits/mspsi4/objdir3/stage/usr/local/psi4/share/psi4/basis/cc-pvdz-jkfit.gbs 
    atoms 113-243                                                                                                                                                                                                   entry H          line    51 file /theoryfs2/ds/schieber/Gits/mspsi4/objdir3/stage/usr/local/psi4/share/psi4/basis/cc-pvdz-jkfit.gbs 

  ==> Pre-Iterations <==

   -------------------------------------------------------
    Irrep   Nso     Nmo     Nalpha   Nbeta   Ndocc  Nsocc
   -------------------------------------------------------
     A       2223    2223       0       0       0       0
   -------------------------------------------------------
    Total    2223    2223     438     438     438       0
   -------------------------------------------------------

  ==> Integral Setup <==

  ==> DFJK: Density-Fitted J/K Matrices <==

    J tasked:                  Yes
    K tasked:                  Yes
    wK tasked:                  No
    OpenMP threads:              6
    Integrals threads:           6
    Memory (MB):             42915
    Algorithm:                Core
    Integral Cache:           NONE
    Schwarz Cutoff:          1E-12
    Fitting Condition:       1E-12

   => Auxiliary Basis Set <=

  Basis Set: (CC-PVDZ AUX)
    Blend: CC-PVDZ-JKFIT
    Number of shells: 3867
    Number of basis function: 10853
    Number of Cartesian functions: 12347
    Spherical Harmonics?: true
    Max angular momentum: 3

  Minimum eigenvalue in the overlap matrix is 7.2800537754E-05.
  Using Symmetric Orthogonalization.

  SCF Guess: Superposition of Atomic Densities via on-the-fly atomic UHF.

  ==> Iterations <==

                           Total Energy        Delta E     RMS |[F,P]|

   @DF-RHF iter   0: -5663.87019901664644   -5.66387e+03   2.35988e-02 
   @DF-RHF iter   1: -5609.57163594787835    5.42986e+01   3.07445e-03 
   @DF-RHF iter   2: -5562.56156094991547    4.70101e+01   5.24490e-03 DIIS
   @DF-RHF iter   3: -5417.58790892782145    1.44974e+02   1.07319e-02 DIIS
   @DF-RHF iter   4: -5605.00256942956003   -1.87415e+02   2.87971e-03 DIIS
   @DF-RHF iter   5: -5613.35948919817747   -8.35692e+00   1.27902e-03 DIIS
   @DF-RHF iter   6: -5613.86074977001135   -5.01261e-01   7.81742e-04 DIIS
   @DF-RHF iter   7: -5614.05180013260178   -1.91050e-01   5.11260e-04 DIIS
   @DF-RHF iter   8: -5614.17148750605156   -1.19687e-01   2.92059e-04 DIIS
   @DF-RHF iter   9: -5614.18594322435092   -1.44557e-02   5.51768e-04 DIIS
   @DF-RHF iter  10: -5614.24229101202945   -5.63478e-02   4.78011e-04 DIIS
   @DF-RHF iter  11: -5614.25966891551889   -1.73779e-02   4.40680e-04 DIIS
   @DF-RHF iter  12: -5614.34000431324330   -8.03354e-02   2.77478e-04 DIIS
   @DF-RHF iter  13: -5614.19369959718279    1.46305e-01   4.79386e-04 DIIS
   @DF-RHF iter  14: -5614.19243887871835    1.26072e-03   4.83000e-04 DIIS
   @DF-RHF iter  15: -5614.12533117225757    6.71077e-02   6.07267e-04 DIIS
   @DF-RHF iter  16: -5614.18729058086137   -6.19594e-02   4.95283e-04 DIIS
   @DF-RHF iter  17: -5614.16471500237640    2.25756e-02   5.39281e-04 DIIS
   @DF-RHF iter  18: -5614.16200238007514    2.71262e-03   5.40232e-04 DIIS
   @DF-RHF iter  19: -5614.19510619384164   -3.31038e-02   4.79279e-04 DIIS
   @DF-RHF iter  20: -5614.16213284590231    3.29733e-02   5.45599e-04 DIIS
   @DF-RHF iter  21: -5614.13607543757826    2.60574e-02   5.90384e-04 DIIS
   @DF-RHF iter  22: -5614.14234591431887   -6.27048e-03   5.73119e-04 DIIS
   @DF-RHF iter  23: -5614.14066498750799    1.68093e-03   5.84078e-04 DIIS
   @DF-RHF iter  24: -5614.14113810311028   -4.73116e-04   5.75747e-04 DIIS
   @DF-RHF iter  25: -5614.14100865080582    1.29452e-04   5.85091e-04 DIIS
   @DF-RHF iter  26: -5614.14104411293374   -3.54621e-05   5.81939e-04 DIIS
   @DF-RHF iter  27: -5614.14103442417127    9.68876e-06   5.83496e-04 DIIS
   @DF-RHF iter  28: -5614.14103707068989   -2.64652e-06   5.80421e-04 DIIS
   @DF-RHF iter  29: -5614.14103634797266    7.22717e-07   5.82721e-04 DIIS
   @DF-RHF iter  30: -5614.14103654526025   -1.97288e-07   5.83493e-04 DIIS
   @DF-RHF iter  31: -5614.14103649144545    5.38148e-08   5.83493e-04 DIIS
   @DF-RHF iter  32: -5614.14103650613470   -1.46892e-08   5.83493e-04 DIIS
   @DF-RHF iter  33: -5614.14103650217839    3.95630e-09   5.78150e-04 DIIS
   @DF-RHF iter  34: -5614.14103650320612   -1.02773e-09   5.77399e-04 DIIS
   @DF-RHF iter  35: -5614.14103650290963    2.96495e-10   5.81185e-04 DIIS
   @DF-RHF iter  36: -5614.14103650298148   -7.18501e-11   5.81185e-04 DIIS
   @DF-RHF iter  37: -5614.14103650297602    5.45697e-12   5.84268e-04 DIIS
   @DF-RHF iter  38: -5614.14103650298784   -1.18234e-11   5.81185e-04 DIIS
   @DF-RHF iter  39: -5614.14103650297875    9.09495e-12   5.81951e-04 DIIS
   @DF-RHF iter  40: -5614.14103650298875   -1.00044e-11   5.84268e-04 DIIS
   @DF-RHF iter  41: -5614.14103650297875    1.00044e-11   5.81951e-04 DIIS
   @DF-RHF iter  42: -5614.14103650298148   -2.72848e-12   5.78905e-04 DIIS
   @DF-RHF iter  43: -5614.14103650300785   -2.63753e-11   5.81185e-04 DIIS
   @DF-RHF iter  44: -5614.14103650298512    2.27374e-11   5.82721e-04 DIIS
   @DF-RHF iter  45: -5614.14103650297784    7.27596e-12   5.81185e-04 DIIS
   @DF-RHF iter  46: -5614.14103650298875   -1.09139e-11   5.81951e-04 DIIS
   @DF-RHF iter  47: -5614.14103650297784    1.09139e-11   5.85829e-04 DIIS
   @DF-RHF iter  48: -5614.14103650299330   -1.54614e-11   5.80422e-04 DIIS
   @DF-RHF iter  49: -5614.14103650300785   -1.45519e-11   5.82721e-04 DIIS
   @DF-RHF iter  50: -5614.14103650299148    1.63709e-11   5.77399e-04 DIIS
   @DF-RHF iter  51: -5614.14103650301877   -2.72848e-11   5.79662e-04 DIIS
   @DF-RHF iter  52: -5614.14103650298784    3.09228e-11   5.85829e-04 DIIS
   @DF-RHF iter  53: -5614.14103650296420    2.36469e-11   5.81185e-04 DIIS
   @DF-RHF iter  54: -5614.14103650299603   -3.18323e-11   5.84268e-04 DIIS
   @DF-RHF iter  55: -5614.14103650299239    3.63798e-12   5.80422e-04 DIIS
   @DF-RHF iter  56: -5614.14103650298239    1.00044e-11   5.82721e-04 DIIS
   @DF-RHF iter  57: -5614.14103650295965    2.27374e-11   5.81951e-04 DIIS
   @DF-RHF iter  58: -5614.14103650299512   -3.54703e-11   5.78905e-04 DIIS
   @DF-RHF iter  59: -5614.14103650299512    0.00000e+00   5.81951e-04 DIIS
   @DF-RHF iter  60: -5614.14103650299967   -4.54747e-12   5.77399e-04 DIIS
   @DF-RHF iter  61: -5614.14103650300876   -9.09495e-12   5.81951e-04 DIIS
   @DF-RHF iter  62: -5614.14103650297784    3.09228e-11   5.82721e-04 DIIS
   @DF-RHF iter  63: -5614.14103650299057   -1.27329e-11   5.82721e-04 DIIS
   @DF-RHF iter  64: -5614.14103650297875    1.18234e-11   5.82721e-04 DIIS
   @DF-RHF iter  65: -5614.14103650299694   -1.81899e-11   5.85047e-04 DIIS
   @DF-RHF iter  66: -5614.14103650298239    1.45519e-11   5.80422e-04 DIIS
   @DF-RHF iter  67: -5614.14103650296965    1.27329e-11   5.83493e-04 DIIS
   @DF-RHF iter  68: -5614.14103650298148   -1.18234e-11   5.78150e-04 DIIS
   @DF-RHF iter  69: -5614.14103650299603   -1.45519e-11   5.82721e-04 DIIS
   @DF-RHF iter  70: -5614.14103650298239    1.36424e-11   5.81951e-04 DIIS
   @DF-RHF iter  71: -5614.14103650298512   -2.72848e-12   5.80422e-04 DIIS
   @DF-RHF iter  72: -5614.14103650299512   -1.00044e-11   5.80422e-04 DIIS
   @DF-RHF iter  73: -5614.14103650296693    2.81943e-11   5.75162e-04 DIIS
   @DF-RHF iter  74: -5614.14103650300058   -3.36513e-11   5.76651e-04 DIIS
   @DF-RHF iter  75: -5614.14103650298966    1.09139e-11   5.81951e-04 DIIS
   @DF-RHF iter  76: -5614.14103650298057    9.09495e-12   5.81951e-04 DIIS
   @DF-RHF iter  77: -5614.14103650299239   -1.18234e-11   5.77399e-04 DIIS
   @DF-RHF iter  78: -5614.14103650298239    1.00044e-11   5.78905e-04 DIIS
   @DF-RHF iter  79: -5614.14103650299239   -1.00044e-11   5.78905e-04 DIIS
   @DF-RHF iter  80: -5614.14103650298421    8.18545e-12   5.81951e-04 DIIS
   @DF-RHF iter  81: -5614.14103650299694   -1.27329e-11   5.83493e-04 DIIS
   @DF-RHF iter  82: -5614.14103650297875    1.81899e-11   5.81185e-04 DIIS
   @DF-RHF iter  83: -5614.14103650297420    4.54747e-12   5.81951e-04 DIIS
   @DF-RHF iter  84: -5614.14103650297966   -5.45697e-12   5.81951e-04 DIIS
   @DF-RHF iter  85: -5614.14103650300422   -2.45564e-11   5.83493e-04 DIIS
   @DF-RHF iter  86: -5614.14103650299330    1.09139e-11   5.81951e-04 DIIS
   @DF-RHF iter  87: -5614.14103650298148    1.18234e-11   5.80422e-04 DIIS
   @DF-RHF iter  88: -5614.14103650299694   -1.54614e-11   5.80422e-04 DIIS
   @DF-RHF iter  89: -5614.14103650300331   -6.36646e-12   5.82721e-04 DIIS
   @DF-RHF iter  90: -5614.14103650300785   -4.54747e-12   5.83493e-04 DIIS
   @DF-RHF iter  91: -5614.14103650298603    2.18279e-11   5.82721e-04 DIIS
   @DF-RHF iter  92: -5614.14103650299239   -6.36646e-12   5.82721e-04 DIIS
   @DF-RHF iter  93: -5614.14103650298875    3.63798e-12   5.81185e-04 DIIS
   @DF-RHF iter  94: -5614.14103650299330   -4.54747e-12   5.82721e-04 DIIS
   @DF-RHF iter  95: -5614.14103650298966    3.63798e-12   5.81951e-04 DIIS
   @DF-RHF iter  96: -5614.14103650298148    8.18545e-12   5.83493e-04 DIIS
   @DF-RHF iter  97: -5614.14103650299694   -1.54614e-11   5.79662e-04 DIIS
   @DF-RHF iter  98: -5614.14103650298239    1.45519e-11   5.82721e-04 DIIS
   @DF-RHF iter  99: -5614.14103650298875   -6.36646e-12   5.81951e-04 DIIS
   @DF-RHF iter 100: -5614.14103650300240   -1.36424e-11   5.77399e-04 DIIS

  ==> Post-Iterations <==

  Failed to converge.
Iterations did not converge.
Traceback (most recent call last):
  File "/theoryfs2/ds/schieber/Gits/mspsi4/objdir3/stage/usr/local/psi4/bin/psi4", line 260, in <module>
    exec(content)
  File "<string>", line 275, in <module>
  File "/theoryfs2/ds/schieber/Gits/mspsi4/objdir3/stage/usr/local/psi4/lib/psi4/driver/driver.py", line 460, in energy
    wfn = procedures['energy'][lowername](lowername, molecule=molecule, **kwargs)
  File "/theoryfs2/ds/schieber/Gits/mspsi4/objdir3/stage/usr/local/psi4/lib/psi4/driver/procrouting/proc.py", line 1996, in run_scf
    scf_wfn = scf_helper(name, post_scf=False, **kwargs)
  File "/theoryfs2/ds/schieber/Gits/mspsi4/objdir3/stage/usr/local/psi4/lib/psi4/driver/procrouting/proc.py", line 1351, in scf_helper
    e_scf = scf_wfn.compute_energy()

RuntimeError: 
Fatal Error: Iterations did not converge.
Error occurred in file: /theoryfs2/ds/schieber/Gits/mspsi4/psi4/src/psi4/libpsi4util/process.cc on line: 112
The most recent 5 function calls were:

psi::PsiException::PsiException(std::__cxx11::basic_string<char, std::char_traits<char>, std::allocator<char> >, char const*, int)
psi::die_if_not_converged()
psi::scf::HF::finalize_E()
pybind11::cpp_function::dispatcher(_object*, _object*, _object*)


*** Psi4 encountered an error. Buy a developer more coffee!
*** Resources and help at github.com/psi4/psi4.
